--------------------------------------------------------------------------
WARNING: No preset parameters were found for the device that Open MPI
detected:

  Local host:            golub090
  Device name:           mlx4_0
  Device vendor ID:      0x02c9
  Device vendor part ID: 4099

Default device parameters will be used, which may result in lower
performance.  You can edit any of the files specified by the
btl_openib_device_param_files MCA parameter to set values for your
device.

NOTE: You can turn off this warning by setting the MCA parameter
      btl_openib_warn_no_device_params_found to 0.
--------------------------------------------------------------------------
 PROCESS           25  OF           32  WORKING
 PROCESS           27  OF           32  WORKING
 PROCESS           28  OF           32  WORKING
 PROCESS           22  OF           32  WORKING
 PROCESS           30  OF           32  WORKING
 PROCESS           24  OF           32  WORKING
 PROCESS           31  OF           32  WORKING
 PROCESS           23  OF           32  WORKING
 PROCESS           19  OF           32  WORKING
 PROCESS           29  OF           32  WORKING
 PROCESS           16  OF           32  WORKING
 PROCESS           21  OF           32  WORKING
 PROCESS            8  OF           32  WORKING
 PROCESS           12  OF           32  WORKING
 PROCESS           15  OF           32  WORKING
 PROCESS            3  OF           32  WORKING
 PROCESS           13  OF           32  WORKING
 PROCESS           11  OF           32  WORKING
 PROCESS            2  OF           32  WORKING
 PROCESS           20  OF           32  WORKING
 PROCESS           10  OF           32  WORKING
 PROCESS            1  OF           32  WORKING
 PROCESS            9  OF           32  WORKING
 PROCESS           14  OF           32  WORKING
 PROCESS            0  OF           32  WORKING
 PROCESS           18  OF           32  WORKING
 PROCESS           26  OF           32  WORKING
 PROCESS           17  OF           32  WORKING
 PROCESS            6  OF           32  WORKING
 PROCESS            5  OF           32  WORKING
 PROCESS            7  OF           32  WORKING
 PROCESS            4  OF           32  WORKING

         
 *******************************************************************************
 *                                                                             *
 *                               CRYSTAL17                                     *
 *                      public : 1.0.1 - Jun 21st, 2017                        *
 *                       HTTP://WWW.CRYSTAL.UNITO.IT                           *
 *                                                                             *
 *                              MAIN AUTHORS                                   *
 *                                                                             *
 *  R. DOVESI(1,11), V.R. SAUNDERS(2), C. ROETTI(1,11), R. ORLANDO(1,11),      *
 *  C.M. ZICOVICH-WILSON(1,3), F. PASCALE(4), B. CIVALLERI(1,11),              *
 *  K. DOLL(5), N.M. HARRISON(2,6), I.J. BUSH(7), Ph. D'ARCO(8),               *
 *  M. LLUNELL(9), M. CAUSA'(10), Y. NOEL(8), L. MASCHIO(1,11), A. ERBA(1,11)  *
 *  M. RE'RAT(14), S. CASASSA(1,11)                                            *
 *                                                                             *
 *        CONTRIBUTIONS TO THE CODE HAVE ALSO BEEN GIVEN BY                    *
 *                                                                             *
 *  M. FERRABONE(1,11), M. DE LA PIERRE(1,11), M. FERRERO(1,11),               *
 *  J. BAIMA(1,11), E. ALBANESE(1,11), M.F. PEINTINGER(12), R. BAST(13),       *
 *  B. KIRTMAN(15), V. LACIVITA(1,11), R. DEMICHELIS(1,16)                     *
 *  G. BRANDEBURG(17), S. SALUSTRO(1,11), G. SANSONE(1,11)                     *
 *  M.T. RUGGIERO(18)                                                          *
 *                                                                             *
 * (1) THEORETICAL CHEMISTRY GROUP - UNIVERSITA' DI TORINO - TORINO (ITALY)    *

 * (2) COMPUTATIONAL SCIENCE & ENGINEERING DEPARTMENT - STFC DARESBURY (UK)    *
 * (3) UNIVERSIDAD AUTONOMA DEL ESTADO DE MORELOS - CUERNAVACA (MEXICO)        *
 * (4) UNIVERSITE' DE LORRAINE - NANCY (FRANCE)                                *
 * (5) UNIVERSITAET STUTTGART- STUTTGART (GERMANY)                             *
 * (6) IMPERIAL COLLEGE - LONDON (UK)                                          *
 * (7) OXFORD E-RESEARCH CENTRE - OXFORD (UK)                                  *
 * (8) UPMC - SORBONNE UNIVERSITES - PARIS (FRANCE)                            *
 * (9) UNIVERSIDAD DE BARCELONA - BARCELONA (SPAIN)                            *
 *(10) UNIVERSITA' DI NAPOLI "FEDERICO II" - NAPOLI (ITALY)                    *
 *(11) NIS - NANOSTRUCTURED INTERFACES AND SURFACES - TORINO (ITALY)           *
 *(12) MPI FUER CHEMISCHE ENERGIEKONVERSION - MUELHEIM AN DER RUHR (GERMANY)   *
 *(13) UNIVERSITY OF TROMSO - TROMSO (NORWAY)                                  *
 *(14) UNIVERSITE' DE PAU ET DES PAYS DE L'ADOUR - PAU (FRANCE)                *
 *(15) UNIVERSITY OF CALIFORNIA SANTA BARBARA - SANTA BARBARA (USA)            *
 *(16) CURTIN UNIVERSITY - PERTH (AUSTRALIA)                                   *
 *(17) UNIVERSITY COLLEGE LONDON - LONDON (UK)                                 *
 *(18) CAMBRIDGE UNIVERSITY - CAMBRIDGE (UK)                                   *
 *                                                                             *
 *******************************************************************************
 EEEEEEEEEE STARTING  DATE 23 01 2018 TIME 06:51:11.5
 Generated by CrystalWriter                                                      

 CRYSTAL CALCULATION
 (INPUT ACCORDING TO THE INTERNATIONAL TABLES FOR X-RAY CRYSTALLOGRAPHY)
 CRYSTAL FAMILY                       :  TETRAGONAL  
 CRYSTAL CLASS  (GROTH - 1921)        :  DITETRAGONAL PYRAMIDAL               

 SPACE GROUP (NONCENTROSYMMETRIC)     :  P 4 M M         

 LATTICE PARAMETERS  (ANGSTROMS AND DEGREES) - CONVENTIONAL CELL
        A           B           C        ALPHA        BETA       GAMMA
     3.97088     3.97088     3.38540    90.00000    90.00000    90.00000


 NUMBER OF IRREDUCIBLE ATOMS IN THE CONVENTIONAL CELL:    4

 INPUT COORDINATES

 ATOM AT. N.              COORDINATES
   1 238     0.000000000000E+00  0.000000000000E+00  5.000000000000E-01
   2 229     5.000000000000E-01  5.000000000000E-01  0.000000000000E+00
   3 208     0.000000000000E+00  5.000000000000E-01  0.000000000000E+00
   4 208     5.000000000000E-01  0.000000000000E+00  0.000000000000E+00

 *******************************************************************************

 << INFORMATION >>: FROM NOW ON, ALL COORDINATES REFER TO THE PRIMITIVE CELL

 *******************************************************************************

 LATTICE PARAMETERS  (ANGSTROMS AND DEGREES) - PRIMITIVE CELL
       A          B          C        ALPHA      BETA     GAMMA        VOLUME
    3.97088    3.97088    3.38540    90.00000  90.00000  90.00000     53.380604

 INPUT LIST - ATOM N.   4 NOT IRREDUCIBLE

 COORDINATES OF THE EQUIVALENT ATOMS (FRACTIONAL UNITS)

 N. ATOM EQUIV AT. N.          X                  Y                  Z

   1   1   1  238 SR    0.00000000000E+00  0.00000000000E+00 -5.00000000000E-01

   2   2   1  229 CU   -5.00000000000E-01 -5.00000000000E-01  0.00000000000E+00

   3   3   1  208 O     0.00000000000E+00 -5.00000000000E-01  0.00000000000E+00
   4   3   2  208 O     5.00000000000E-01  0.00000000000E+00  0.00000000000E+00

 NUMBER OF SYMMETRY OPERATORS         :    8
 *******************************************************************************
 * GEOMETRY EDITING - INPUT COORDINATES ARE GIVEN IN ANGSTROM         
 *******************************************************************************

 GEOMETRY NOW FULLY CONSISTENT WITH THE GROUP

 NO SYMMOPS WITH FINITE TRANSLATIONAL COMPONENT

 *******************************************************************************
 * SUPERCELL OPTION
 *******************************************************************************


        EXPANSION MATRIX OF PRIMITIVE CELL
 E1     2.000     0.000     0.000
 E2     0.000     2.000     0.000
 E3     0.000     0.000     1.000

 NUMBER OF ATOMS PER SUPERCELL    16

        DIRECT LATTICE VECTORS COMPONENTS (ANGSTROM)
 B1     7.942     0.000     0.000
 B2     0.000     7.942     0.000
 B3     0.000     0.000     3.385

 LATTICE PARAMETERS  (ANGSTROM AND DEGREES)
       A          B          C         ALPHA     BETA     GAMMA        VOLUME
    7.94176    7.94176    3.38540    90.00000  90.00000  90.00000    213.522417


 **** ATOMS BELONGING TO THE SUPERCELL
 LABEL AT.NO.      COORDINATES (ANGSTROM AND FRACTIONAL)
     1   238     0.0000     0.0000     1.6927     0.0000     0.0000     0.5000
     2   238     0.0000     3.9709     1.6927     0.0000     0.5000     0.5000
     3   238     3.9709     0.0000     1.6927     0.5000     0.0000     0.5000
     4   238     3.9709     3.9709     1.6927     0.5000     0.5000     0.5000
     5   229    -1.9854    -1.9854     0.0000    -0.2500    -0.2500     0.0000
     6   229    -1.9854     1.9854     0.0000    -0.2500     0.2500     0.0000
     7   229     1.9854    -1.9854     0.0000     0.2500    -0.2500     0.0000
     8   229     1.9854     1.9854     0.0000     0.2500     0.2500     0.0000
     9   208     0.0000    -1.9854     0.0000     0.0000    -0.2500     0.0000
    10   208     0.0000     1.9854     0.0000     0.0000     0.2500     0.0000
    11   208     3.9709    -1.9854     0.0000     0.5000    -0.2500     0.0000
    12   208     3.9709     1.9854     0.0000     0.5000     0.2500     0.0000
    13   208    -1.9854     0.0000     0.0000    -0.2500     0.0000     0.0000
    14   208    -1.9854     3.9709     0.0000    -0.2500     0.5000     0.0000
    15   208     1.9854     0.0000     0.0000     0.2500     0.0000     0.0000
    16   208     1.9854     3.9709     0.0000     0.2500     0.5000     0.0000

 **************************** SUPERCELL GENERATED ****************************
 *********************************************************************
                        ATOMIC SITE SYMMETRIES
 *********************************************************************


 ATOM   1 ATOMIC NUMBER 238 - NUMBER OF SYMMOPS WHICH DO NOT MOVE THE ATOM   8
 SEQUENCE NUMBERS OF THE SYMMOPS
    1    2    3    4    5    6    7    8
 NO EQUIVALENT ATOMS


 ATOM   2 ATOMIC NUMBER 238 - NUMBER OF SYMMOPS WHICH DO NOT MOVE THE ATOM   4
 SEQUENCE NUMBERS OF THE SYMMOPS
    1    2    5    6
 NUMBER OF ATOMS EQUIVALENT BY SYMMETRY    1
 SEQUENCE NUMBERS OF THESE ATOMS
    3
 SEQUENCE NUMBERS OF THE CORRESPONDING SYMMOPS
    3


 ATOM   3 ATOMIC NUMBER 238 - NUMBER OF SYMMOPS WHICH DO NOT MOVE THE ATOM   4
 SEQUENCE NUMBERS OF THE SYMMOPS
    1    2    5    6
 NUMBER OF ATOMS EQUIVALENT BY SYMMETRY    1
 SEQUENCE NUMBERS OF THESE ATOMS
    2
 SEQUENCE NUMBERS OF THE CORRESPONDING SYMMOPS
    3


 ATOM   4 ATOMIC NUMBER 238 - NUMBER OF SYMMOPS WHICH DO NOT MOVE THE ATOM   8
 SEQUENCE NUMBERS OF THE SYMMOPS
    1    2    3    4    5    6    7    8
 NO EQUIVALENT ATOMS


 ATOM   5 ATOMIC NUMBER 229 - NUMBER OF SYMMOPS WHICH DO NOT MOVE THE ATOM   2
 SEQUENCE NUMBERS OF THE SYMMOPS
    1    7
 NUMBER OF ATOMS EQUIVALENT BY SYMMETRY    3
 SEQUENCE NUMBERS OF THESE ATOMS
    8    7    6
 SEQUENCE NUMBERS OF THE CORRESPONDING SYMMOPS
    2    3    4


 ATOM   6 ATOMIC NUMBER 229 - NUMBER OF SYMMOPS WHICH DO NOT MOVE THE ATOM   2
 SEQUENCE NUMBERS OF THE SYMMOPS
    1    8
 NUMBER OF ATOMS EQUIVALENT BY SYMMETRY    3
 SEQUENCE NUMBERS OF THESE ATOMS
    7    5    8
 SEQUENCE NUMBERS OF THE CORRESPONDING SYMMOPS
    2    3    4


 ATOM   7 ATOMIC NUMBER 229 - NUMBER OF SYMMOPS WHICH DO NOT MOVE THE ATOM   2
 SEQUENCE NUMBERS OF THE SYMMOPS
    1    8
 NUMBER OF ATOMS EQUIVALENT BY SYMMETRY    3
 SEQUENCE NUMBERS OF THESE ATOMS
    6    8    5
 SEQUENCE NUMBERS OF THE CORRESPONDING SYMMOPS
    2    3    4


 ATOM   8 ATOMIC NUMBER 229 - NUMBER OF SYMMOPS WHICH DO NOT MOVE THE ATOM   2
 SEQUENCE NUMBERS OF THE SYMMOPS
    1    7
 NUMBER OF ATOMS EQUIVALENT BY SYMMETRY    3
 SEQUENCE NUMBERS OF THESE ATOMS
    5    6    7
 SEQUENCE NUMBERS OF THE CORRESPONDING SYMMOPS
    2    3    4


 ATOM   9 ATOMIC NUMBER 208 - NUMBER OF SYMMOPS WHICH DO NOT MOVE THE ATOM   2
 SEQUENCE NUMBERS OF THE SYMMOPS
    1    5
 NUMBER OF ATOMS EQUIVALENT BY SYMMETRY    3
 SEQUENCE NUMBERS OF THESE ATOMS
   10   15   13
 SEQUENCE NUMBERS OF THE CORRESPONDING SYMMOPS
    2    3    4


 ATOM  10 ATOMIC NUMBER 208 - NUMBER OF SYMMOPS WHICH DO NOT MOVE THE ATOM   2
 SEQUENCE NUMBERS OF THE SYMMOPS
    1    5
 NUMBER OF ATOMS EQUIVALENT BY SYMMETRY    3
 SEQUENCE NUMBERS OF THESE ATOMS
    9   13   15
 SEQUENCE NUMBERS OF THE CORRESPONDING SYMMOPS
    2    3    4


 ATOM  11 ATOMIC NUMBER 208 - NUMBER OF SYMMOPS WHICH DO NOT MOVE THE ATOM   2
 SEQUENCE NUMBERS OF THE SYMMOPS
    1    5
 NUMBER OF ATOMS EQUIVALENT BY SYMMETRY    3
 SEQUENCE NUMBERS OF THESE ATOMS
   12   16   14
 SEQUENCE NUMBERS OF THE CORRESPONDING SYMMOPS
    2    3    4


 ATOM  12 ATOMIC NUMBER 208 - NUMBER OF SYMMOPS WHICH DO NOT MOVE THE ATOM   2
 SEQUENCE NUMBERS OF THE SYMMOPS
    1    5
 NUMBER OF ATOMS EQUIVALENT BY SYMMETRY    3
 SEQUENCE NUMBERS OF THESE ATOMS
   11   14   16
 SEQUENCE NUMBERS OF THE CORRESPONDING SYMMOPS
    2    3    4


 ATOM  13 ATOMIC NUMBER 208 - NUMBER OF SYMMOPS WHICH DO NOT MOVE THE ATOM   2
 SEQUENCE NUMBERS OF THE SYMMOPS
    1    6
 NUMBER OF ATOMS EQUIVALENT BY SYMMETRY    3
 SEQUENCE NUMBERS OF THESE ATOMS
   15    9   10
 SEQUENCE NUMBERS OF THE CORRESPONDING SYMMOPS
    2    3    4


 ATOM  14 ATOMIC NUMBER 208 - NUMBER OF SYMMOPS WHICH DO NOT MOVE THE ATOM   2
 SEQUENCE NUMBERS OF THE SYMMOPS
    1    6
 NUMBER OF ATOMS EQUIVALENT BY SYMMETRY    3
 SEQUENCE NUMBERS OF THESE ATOMS
   16   11   12
 SEQUENCE NUMBERS OF THE CORRESPONDING SYMMOPS
    2    3    4


 ATOM  15 ATOMIC NUMBER 208 - NUMBER OF SYMMOPS WHICH DO NOT MOVE THE ATOM   2
 SEQUENCE NUMBERS OF THE SYMMOPS
    1    6
 NUMBER OF ATOMS EQUIVALENT BY SYMMETRY    3
 SEQUENCE NUMBERS OF THESE ATOMS
   13   10    9
 SEQUENCE NUMBERS OF THE CORRESPONDING SYMMOPS
    2    3    4


 ATOM  16 ATOMIC NUMBER 208 - NUMBER OF SYMMOPS WHICH DO NOT MOVE THE ATOM   2
 SEQUENCE NUMBERS OF THE SYMMOPS
    1    6
 NUMBER OF ATOMS EQUIVALENT BY SYMMETRY    3
 SEQUENCE NUMBERS OF THESE ATOMS
   14   12   11
 SEQUENCE NUMBERS OF THE CORRESPONDING SYMMOPS
    2    3    4

 *****    8 SYMMOPS - TRANSLATORS IN ANGSTROM
 ***** MATRICES AND TRANSLATORS IN THE CARTESIAN REFERENCE FRAME

 ORDER   : ORDER OF THE OPERATOR

 TRANSLA : REAL TRANSLATION (WITHOUT ORIGIN SHIFT) IN CARTESIAN COORDINATES

 uvw/hkl : ORIENTATION OF THE OPERATOR IN CARTESIAN COORDINATES

 LOCATED : ORIGIN OF THE OPERATOR IN CARTESIAN COORDINATES

   NO.   1 INVERSE   1    ORDER   1        NO.   2 INVERSE   2    ORDER   2
    1.000   0.000   0.000     0.000        -1.000   0.000   0.000     0.000
    0.000   1.000   0.000     0.000         0.000  -1.000   0.000     0.000
    0.000   0.000   1.000     0.000         0.000   0.000   1.000     0.000
             OPERATION E(   1)                       OPERATION C(   2)
 DETERMINANT 1.; ROTATION(DEG)   0.      DETERMINANT 1.; ROTATION(DEG) 180.
 TRANSLA (  0.000    0.000    0.000)     TRANSLA (  0.000    0.000    0.000)
 uvw/hkl (  0.000    0.000    0.000)     uvw/hkl (  0.000    0.000    4.000)
 LOCATED (  0.000    0.000    0.000)     LOCATED (  0.000    0.000    0.000)

   NO.   3 INVERSE   4    ORDER   4        NO.   4 INVERSE   3    ORDER   4
    0.000  -1.000   0.000     0.000         0.000   1.000   0.000     0.000
    1.000   0.000   0.000     0.000        -1.000   0.000   0.000     0.000
    0.000   0.000   1.000     0.000         0.000   0.000   1.000     0.000
             OPERATION C(   4)                       OPERATION C(   4)
 DETERMINANT 1.; ROTATION(DEG)  90.      DETERMINANT 1.; ROTATION(DEG)  90.
 TRANSLA (  0.000    0.000    0.000)     TRANSLA (  0.000    0.000    0.000)
 uvw/hkl (  0.000    0.000    2.000)     uvw/hkl (  0.000    0.000    2.000)
 LOCATED (  0.000    0.000    0.000)     LOCATED (  0.000    0.000    0.000)

   NO.   5 INVERSE   5    ORDER   2        NO.   6 INVERSE   6    ORDER   2
   -1.000   0.000   0.000     0.000         1.000   0.000   0.000     0.000
    0.000   1.000   0.000     0.000         0.000  -1.000   0.000     0.000
    0.000   0.000   1.000     0.000         0.000   0.000   1.000     0.000
             OPERATION M(   2)                       OPERATION M(   2)
 DETERMINANT-1.; ROTATION(DEG)   0.      DETERMINANT-1.; ROTATION(DEG)   0.
 TRANSLA (  0.000    0.000    0.000)     TRANSLA (  0.000    0.000    0.000)
 uvw/hkl (  2.000    0.000    0.000)     uvw/hkl (  0.000   -2.000    0.000)
 LOCATED (  0.000    0.000    0.000)     LOCATED (  0.000    0.000    0.000)

   NO.   7 INVERSE   7    ORDER   2        NO.   8 INVERSE   8    ORDER   2
    0.000   1.000   0.000     0.000         0.000  -1.000   0.000     0.000
    1.000   0.000   0.000     0.000        -1.000   0.000   0.000     0.000
    0.000   0.000   1.000     0.000         0.000   0.000   1.000     0.000
             OPERATION M(   2)                       OPERATION M(   2)
 DETERMINANT-1.; ROTATION(DEG)   0.      DETERMINANT-1.; ROTATION(DEG)   0.
 TRANSLA (  0.000    0.000    0.000)     TRANSLA (  0.000    0.000    0.000)
 uvw/hkl (  1.000   -1.000    0.000)     uvw/hkl (  1.000    1.000    0.000)
 LOCATED (  0.000    0.000    0.000)     LOCATED (  0.000    0.000    0.000)
 SSSSSSSSSSSSSSSSSSSSSSSSSSSSSSSSSSSSSSSSSSSSSSSSSSSSSSSSSSSSSSSSSSSSSSSSSSSSSS
 REDUCTION OF SYMMETRY - ATOMIC LABELS SET TO (ATOM, AT. N., LABEL)
   1(238) 1;   2(238) 1;   3(238) 1;   4(238) 1;   5(229) 2;   6(229) 3;
   7(229) 4;   8(229) 5;   9(208) 6;  10(208) 6;  11(208) 6;  12(208) 6;
  13(208) 6;  14(208) 6;  15(208) 6;  16(208) 6;
 THE NUMBER OF SYMMETRY OPERATORS HAS BEEN REDUCED FROM  8 TO  1
 *******************************************************************************

 GCALCO - MAX INDICES DIRECT LATTICE VECTOR    11    11    25
 NO.OF VECTORS CREATED 6999 STARS  548 RMAX   134.22276 BOHR

 GEOMETRY FOR WAVE FUNCTION - DIMENSIONALITY OF THE SYSTEM    3
 (NON PERIODIC DIRECTION: LATTICE PARAMETER FORMALLY SET TO 500)
 *******************************************************************************
 LATTICE PARAMETERS (ANGSTROMS AND DEGREES) - BOHR = 0.5291772083 ANGSTROM
 PRIMITIVE CELL - CENTRING CODE 1/1 VOLUME=   213.522417 - DENSITY  5.687 g/cm^3
         A              B              C           ALPHA      BETA       GAMMA 
     7.94176411     7.94176411     3.38539626    90.000000  90.000000  90.000000
 *******************************************************************************
 ATOMS IN THE ASYMMETRIC UNIT   16 - ATOMS IN THE UNIT CELL:   16
     ATOM                 X/A                 Y/B                 Z/C    
 *******************************************************************************
      1 T 238 SR    0.000000000000E+00  0.000000000000E+00 -5.000000000000E-01
      2 T 238 SR    0.000000000000E+00 -5.000000000000E-01 -5.000000000000E-01
      3 T 238 SR   -5.000000000000E-01  0.000000000000E+00 -5.000000000000E-01
      4 T 238 SR   -5.000000000000E-01 -5.000000000000E-01 -5.000000000000E-01
      5 T 229 CU   -2.500000000000E-01 -2.500000000000E-01  0.000000000000E+00
      6 T 229 CU   -2.500000000000E-01  2.500000000000E-01  0.000000000000E+00
      7 T 229 CU    2.500000000000E-01 -2.500000000000E-01  0.000000000000E+00
      8 T 229 CU    2.500000000000E-01  2.500000000000E-01  0.000000000000E+00
      9 T 208 O     0.000000000000E+00 -2.500000000000E-01  0.000000000000E+00
     10 T 208 O     0.000000000000E+00  2.500000000000E-01  0.000000000000E+00
     11 T 208 O    -5.000000000000E-01 -2.500000000000E-01  0.000000000000E+00
     12 T 208 O    -5.000000000000E-01  2.500000000000E-01  0.000000000000E+00
     13 T 208 O    -2.500000000000E-01  0.000000000000E+00  0.000000000000E+00
     14 T 208 O    -2.500000000000E-01 -5.000000000000E-01  0.000000000000E+00
     15 T 208 O     2.500000000000E-01  0.000000000000E+00  0.000000000000E+00
     16 T 208 O     2.500000000000E-01 -5.000000000000E-01  0.000000000000E+00

 T = ATOM BELONGING TO THE ASYMMETRIC UNIT

 ****    1 SYMMOPS - TRANSLATORS IN FRACTIONAL UNITS
 **** MATRICES AND TRANSLATORS IN THE CRYSTALLOGRAPHIC REFERENCE FRAME
   V INV                    ROTATION MATRICES                   TRANSLATORS
   1   1  1.00  0.00  0.00  0.00  1.00  0.00  0.00  0.00  1.00  0.00  0.00  0.00

 DIRECT LATTICE VECTORS CARTESIAN COMPONENTS (ANGSTROM)
          X                    Y                    Z
   0.794176410504E+01   0.000000000000E+00   0.000000000000E+00
   0.000000000000E+00   0.794176410504E+01   0.000000000000E+00
   0.000000000000E+00   0.000000000000E+00   0.338539626231E+01


 CARTESIAN COORDINATES - PRIMITIVE CELL
 *******************************************************************************
 *      ATOM          X(ANGSTROM)         Y(ANGSTROM)         Z(ANGSTROM)
 *******************************************************************************
    1   238 SR    0.000000000000E+00  0.000000000000E+00  1.692698131155E+00
    2   238 SR    0.000000000000E+00  3.970882052520E+00  1.692698131155E+00
    3   238 SR    3.970882052520E+00  0.000000000000E+00  1.692698131155E+00
    4   238 SR    3.970882052520E+00  3.970882052520E+00  1.692698131155E+00
    5   229 CU   -1.985441026260E+00 -1.985441026260E+00  0.000000000000E+00
    6   229 CU   -1.985441026260E+00  1.985441026260E+00  0.000000000000E+00
    7   229 CU    1.985441026260E+00 -1.985441026260E+00  0.000000000000E+00
    8   229 CU    1.985441026260E+00  1.985441026260E+00  0.000000000000E+00
    9   208 O     0.000000000000E+00 -1.985441026260E+00  0.000000000000E+00
   10   208 O     0.000000000000E+00  1.985441026260E+00  0.000000000000E+00
   11   208 O     3.970882052520E+00 -1.985441026260E+00  0.000000000000E+00
   12   208 O     3.970882052520E+00  1.985441026260E+00  0.000000000000E+00
   13   208 O    -1.985441026260E+00  0.000000000000E+00  0.000000000000E+00
   14   208 O    -1.985441026260E+00  3.970882052520E+00  0.000000000000E+00
   15   208 O     1.985441026260E+00  0.000000000000E+00  0.000000000000E+00
   16   208 O     1.985441026260E+00  3.970882052520E+00  0.000000000000E+00

 *******************************************************************************
 *** PSEUDOPOTENTIAL INFORMATION ***
 *******************************************************************************

 ATOMIC NUMBER  29, NUCLEAR CHARGE 19.000, GIVEN IN INPUT       PSEUDOPOTENTIAL
   TYPE       EXPONENT      COEFF.    N      EXPONENT      COEFF.    N
  W0 TMS     6.2514963   19.0000000  -1     6.7272533  118.7784294   1
             6.6102459 -105.8998240   0
  P0 TMS    12.3656871  127.3506942   0
  P1 TMS    11.1607294   71.2298490   0

 ATOMIC NUMBER   8, NUCLEAR CHARGE  6.000, GIVEN IN INPUT       PSEUDOPOTENTIAL
   TYPE       EXPONENT      COEFF.    N      EXPONENT      COEFF.    N
  W0 TMS     9.2979390    6.0000000  -1     8.8649220   55.7876342   1
             8.6292567  -38.8197850   0
  P0 TMS     8.7192445   38.4191413   0

 ATOMIC NUMBER  38, NUCLEAR CHARGE  2.000, GIVEN IN INPUT       PSEUDOPOTENTIAL
   TYPE       EXPONENT      COEFF.    N      EXPONENT      COEFF.    N
  W0 TMS     4.3839388    2.0000000  -1     3.1964983    8.7678775   1
             0.9899150  -14.2552431   0
  P0 TMS     1.2868349  146.8716052   0
  P1 TMS     0.9567448  140.0262284   0
  P2 TMS     1.9483165   24.4454878   0
 INFORMATION **** CHARGED ****  CHARGED CELL - NO TOTAL ENERGY

 NUCLEAR CHARGE  1.320E+02 CHARGE ON SHELLS  1.330E+02
 WARNING **** INPBAS **** UNIT CELL NOT NEUTRAL

 *******************************************************************************
 LOCAL ATOMIC FUNCTIONS BASIS SET
 *******************************************************************************
   ATOM   X(AU)   Y(AU)   Z(AU)  N. TYPE  EXPONENT  S COEF   P COEF   D/F/G COEF
 *******************************************************************************
   1 SR   0.000   0.000   3.199
                                  1 S  
                                         2.177E-01-9.389E-02 0.000E+00 0.000E+00
                                         4.871E-01-2.476E-01 0.000E+00 0.000E+00
                                         1.090E+00 1.601E-01 0.000E+00 0.000E+00
                                         2.439E+00-4.360E-02 0.000E+00 0.000E+00
                                         5.457E+00 8.684E-03 0.000E+00 0.000E+00
                                         1.221E+01-1.296E-03 0.000E+00 0.000E+00
                           2-     4 P  
                                         2.236E-01 0.000E+00-4.747E-02 0.000E+00
                                         4.507E-01 0.000E+00-1.710E-01 0.000E+00
                                         9.086E-01 0.000E+00 1.048E-01 0.000E+00
                                         1.831E+00 0.000E+00-2.952E-02 0.000E+00
                                         3.692E+00 0.000E+00 6.196E-03 0.000E+00
                                         7.442E+00 0.000E+00-9.550E-04 0.000E+00
                           5-     9 D  
                                         5.283E-01 0.000E+00 0.000E+00 1.000E+00
                                 10 S  
                                         2.000E-01 1.000E+00 0.000E+00 0.000E+00
                                 11 S  
                                         6.000E-01 1.000E+00 0.000E+00 0.000E+00
                          12-    14 P  
                                         2.000E-01 0.000E+00 1.000E+00 0.000E+00
                          15-    17 P  
                                         6.000E-01 0.000E+00 1.000E+00 0.000E+00
   2 SR   0.000   7.504   3.199
   3 SR   7.504   0.000   3.199
   4 SR   7.504   7.504   3.199
   5 CU  -3.752  -3.752   0.000
                                 69 S  
                                         2.785E+01-1.934E-02 0.000E+00 0.000E+00
                                         2.142E+01 8.861E-02 0.000E+00 0.000E+00
                                         1.054E+01-3.559E-01 0.000E+00 0.000E+00
                                         2.536E+00 5.381E-01 0.000E+00 0.000E+00
                                         1.250E+00 5.111E-01 0.000E+00 0.000E+00
                                         5.998E-01 1.476E-01 0.000E+00 0.000E+00
                                 70 S  
                                         2.785E+01-2.653E-03 0.000E+00 0.000E+00
                                         2.142E+01-7.542E-03 0.000E+00 0.000E+00
                                         1.054E+01 7.976E-02 0.000E+00 0.000E+00
                                         2.536E+00-1.553E-01 0.000E+00 0.000E+00
                                         1.250E+00-2.531E-01 0.000E+00 0.000E+00
                                         5.998E-01-2.817E-02 0.000E+00 0.000E+00
                          71-    73 P  
                                         1.859E+01 0.000E+00 3.652E-03 0.000E+00
                                         1.430E+01 0.000E+00-3.708E-02 0.000E+00
                                         5.631E+00 0.000E+00 2.171E-01 0.000E+00
                                         2.683E+00 0.000E+00 4.410E-01 0.000E+00
                                         1.259E+00 0.000E+00 3.587E-01 0.000E+00
                                         5.741E-01 0.000E+00 1.148E-01 0.000E+00
                                         2.092E-01 0.000E+00 7.316E-03 0.000E+00
                          74-    78 D  
                                         1.579E+01 0.000E+00 0.000E+00 8.422E-02
                                         7.203E+00 0.000E+00 0.000E+00 2.554E-01
                                         2.974E+00 0.000E+00 0.000E+00 3.500E-01
                                         1.207E+00 0.000E+00 0.000E+00 3.417E-01
                                         4.640E-01 0.000E+00 0.000E+00 2.417E-01
                          79-    85 F  
                                         1.692E+00 0.000E+00 0.000E+00 1.000E+00
                                 86 S  
                                         2.000E-01 1.000E+00 0.000E+00 0.000E+00
                                 87 S  
                                         6.000E-01 1.000E+00 0.000E+00 0.000E+00
                          88-    90 P  
                                         2.000E-01 0.000E+00 1.000E+00 0.000E+00
                          91-    93 P  
                                         6.000E-01 0.000E+00 1.000E+00 0.000E+00
                          94-    98 D  
                                         2.000E-01 0.000E+00 0.000E+00 1.000E+00
                          99-   103 D  
                                         6.000E-01 0.000E+00 0.000E+00 1.000E+00
   6 CU  -3.752   3.752   0.000
   7 CU   3.752  -3.752   0.000
   8 CU   3.752   3.752   0.000
   9 O    0.000  -3.752   0.000
                                209 S  
                                         2.680E-01 3.048E-01 0.000E+00 0.000E+00
                                         5.731E-01 4.538E-01 0.000E+00 0.000E+00
                                         1.225E+00 2.959E-01 0.000E+00 0.000E+00
                                         2.620E+00 1.957E-02 0.000E+00 0.000E+00
                                         5.603E+00-1.286E-01 0.000E+00 0.000E+00
                                         1.198E+01 1.202E-02 0.000E+00 0.000E+00
                                         2.562E+01 4.070E-04 0.000E+00 0.000E+00
                                         5.478E+01-7.600E-05 0.000E+00 0.000E+00
                         210-   212 P  
                                         3.337E-01 0.000E+00 2.560E-01 0.000E+00
                                         6.666E-01 0.000E+00 2.819E-01 0.000E+00
                                         1.332E+00 0.000E+00 2.428E-01 0.000E+00
                                         2.661E+00 0.000E+00 1.611E-01 0.000E+00
                                         5.316E+00 0.000E+00 8.231E-02 0.000E+00
                                         1.062E+01 0.000E+00 3.990E-02 0.000E+00
                                         2.122E+01 0.000E+00 4.679E-03 0.000E+00
                         213-   217 D  
                                         6.693E-01 0.000E+00 0.000E+00 1.000E+00
                         218-   224 F  
                                         1.423E+00 0.000E+00 0.000E+00 1.000E+00
                                225 S  
                                         2.000E-01 1.000E+00 0.000E+00 0.000E+00
                                226 S  
                                         6.000E-01 1.000E+00 0.000E+00 0.000E+00
                         227-   229 P  
                                         2.000E-01 0.000E+00 1.000E+00 0.000E+00
                         230-   232 P  
                                         6.000E-01 0.000E+00 1.000E+00 0.000E+00
  10 O    0.000   3.752   0.000
  11 O    7.504  -3.752   0.000
  12 O    7.504   3.752   0.000
  13 O   -3.752   0.000   0.000
  14 O   -3.752   7.504   0.000
  15 O    3.752   0.000   0.000
  16 O    3.752   7.504   0.000
 INFORMATION **** SET_MPP **** PCRYSTAL CALCULATION
 INFORMATION **** READM2 **** NEW DEFAULT: FOCK/KS MATRIX MIXING SET TO 30 %
 INFORMATION **** READM2 **** NEW DEFAULT: FULL DIRECT SCF MODE
 INFORMATION **** READM2 **** NEW DEFAULT: COULOMB BIPOLAR BUFFER SET TO 32 Mb
 INFORMATION **** READM2 **** NEW DEFAULT: EXCHANGE BIPOLAR BUFFER SET TO 32 Mb

 *******************************************************************************
 NEW DEFAULT: DFT INTEGRATION GRID INCREASED TO XLGRID
 NEW DEFAULT: DIIS ACCELERATOR ACTIVE
 USE KEYWORD NODIIS TO TURN IT OFF
 *******************************************************************************

 INFORMATION **** READM2 **** FULL DIRECT SCF (MONO AND BIEL INT) SELECTED
 INFORMATION **** BIPOSIZE **** COULOMB BIPOLAR BUFFER SET TO   100000000
 INFORMATION **** EXCHSIZE **** EXCHANGE BIPOLAR BUFFER SIZE SET TO    10000000
 INFORMATION **** TOLDEE **** SCF TOL ON TOTAL ENERGY SET TO          10
 INFORMATION **** TOLINTEG **** COULOMB AND EXCHANGE SERIES TOLERANCES MODIFIED
 INFORMATION **** MAXCYCLE **** MAX NUMBER OF SCF CYCLES SET TO         200
 INFORMATION **** SMEAR **** FERMI SMEARING ACTIVE
 FERMI SMEARING - TEMPERATURE SMEARING OF FERMI SURFACE  0.1000E-12
 INFORMATION **** SAVEWF **** not fully tested
 INFORMATION **** SPINLOCK **** LOCK IN A GIVEN SPIN STATE
 ALPHA-BETA ELECTRONS LOCKED TO   3 FOR 200 SCF CYCLES
 SSSSSSSSSSSSSSSSSSSSSSSSSSSSSSSSSSSSSSSSSSSSSSSSSSSSSSSSSSSSSSSSSSSSSSSSSSSSSS
 ATOMIC SPINS SET TO (ATOM, AT. N., SPIN)
   1 238 0   2 238 0   3 238 0   4 238 0   5 229-1   6 229 1   7 229 1   8 229 1
   9 208 0  10 208 0  11 208 0  12 208 0  13 208 0  14 208 0  15 208 0  16 208 0
 *******************************************************************************
 N. OF ATOMS PER CELL        16  COULOMB OVERLAP TOL         (T1) 10**   -8
 NUMBER OF SHELLS           136  COULOMB PENETRATION TOL     (T2) 10**   -8
 NUMBER OF AO               400  EXCHANGE OVERLAP TOL        (T3) 10**   -8
 N. OF ELECTRONS PER CELL   133  EXCHANGE PSEUDO OVP (F(G))  (T4) 10**   -8
 CORE ELECTRONS PER CELL      0  EXCHANGE PSEUDO OVP (P(G))  (T5) 10**  -16
 N. OF SYMMETRY OPERATORS     1  POLE ORDER IN MONO ZONE                  4
 *******************************************************************************
 TYPE OF CALCULATION :  UNRESTRICTED OPEN SHELL
 KOHN-SHAM HAMILTONIAN

 (EXCHANGE)[CORRELATION] FUNCTIONAL:(PERDEW-BURKE-ERNZERHOF)[PERDEW-BURKE-ERNZERHOF]


 HYBRID EXCHANGE - PERCENTAGE OF FOCK EXCHANGE    25.0000

 SPIN POLARIZED DFT SELECTED
 CORE  PSEUDO POTENTIAL         TOL. ON PSEUDO              (TP) 10**- 6
 SPIN POLARIZATION - ALPHA-BETA =  3 FOR 200 CYCLES

 CAPPA:IS1  6;IS2  6;IS3  4; K PTS MONK NET  76; SYMMOPS:K SPACE   2;G SPACE   1

 *******************************************************************************
 MAX NUMBER OF SCF CYCLES     200  CONVERGENCE ON DELTAP        10**-20
 WEIGHT OF F(I) IN F(I+1)      90% CONVERGENCE ON ENERGY        10**-10
 SPIN POLARIZATION - ALPHA-BETA =  3 FOR 200 CYCLES
 SHRINK. FACT.(MONKH.)    6  6  4  NUMBER OF K POINTS IN THE IBZ     76
 SHRINKING FACTOR(GILAT NET)   12  NUMBER OF K POINTS(GILAT NET)    580
 *******************************************************************************
 *** K POINTS COORDINATES (OBLIQUE COORDINATES IN UNITS OF IS =  6)
   1-R(  0  0  0)   2-C(  1  0  0)   3-C(  2  0  0)   4-R(  3  0  0)
   5-C(  0  1  0)   6-C(  1  1  0)   7-C(  2  1  0)   8-C(  3  1  0)
   9-C(  4  1  0)  10-C(  5  1  0)  11-C(  0  2  0)  12-C(  1  2  0)
  13-C(  2  2  0)  14-C(  3  2  0)  15-C(  4  2  0)  16-C(  5  2  0)
  17-R(  0  3  0)  18-C(  1  3  0)  19-C(  2  3  0)  20-R(  3  3  0)
  21-C(  0  0  1)  22-C(  1  0  1)  23-C(  2  0  1)  24-C(  3  0  1)
  25-C(  4  0  1)  26-C(  5  0  1)  27-C(  0  1  1)  28-C(  1  1  1)
  29-C(  2  1  1)  30-C(  3  1  1)  31-C(  4  1  1)  32-C(  5  1  1)
  33-C(  0  2  1)  34-C(  1  2  1)  35-C(  2  2  1)  36-C(  3  2  1)
  37-C(  4  2  1)  38-C(  5  2  1)  39-C(  0  3  1)  40-C(  1  3  1)
  41-C(  2  3  1)  42-C(  3  3  1)  43-C(  4  3  1)  44-C(  5  3  1)
  45-C(  0  4  1)  46-C(  1  4  1)  47-C(  2  4  1)  48-C(  3  4  1)
  49-C(  4  4  1)  50-C(  5  4  1)  51-C(  0  5  1)  52-C(  1  5  1)
  53-C(  2  5  1)  54-C(  3  5  1)  55-C(  4  5  1)  56-C(  5  5  1)
  57-R(  0  0  2)  58-C(  1  0  2)  59-C(  2  0  2)  60-R(  3  0  2)
  61-C(  0  1  2)  62-C(  1  1  2)  63-C(  2  1  2)  64-C(  3  1  2)
  65-C(  4  1  2)  66-C(  5  1  2)  67-C(  0  2  2)  68-C(  1  2  2)
  69-C(  2  2  2)  70-C(  3  2  2)  71-C(  4  2  2)  72-C(  5  2  2)
  73-R(  0  3  2)  74-C(  1  3  2)  75-C(  2  3  2)  76-R(  3  3  2)

 DIRECT LATTICE VECTORS COMPON. (A.U.)     RECIP. LATTICE VECTORS COMPON. (A.U.) 
        X            Y            Z              X            Y            Z
   15.0077592    0.0000000    0.0000000      0.4186625    0.0000000    0.0000000
    0.0000000   15.0077592    0.0000000      0.0000000    0.4186625    0.0000000
    0.0000000    0.0000000    6.3974718      0.0000000    0.0000000    0.9821357

 DISK SPACE FOR EIGENVECTORS (FTN 10)    23040000 REALS

 SYMMETRY ADAPTION OF THE BLOCH FUNCTIONS DISABLED
 TTTTTTTTTTTTTTTTTTTTTTTTTTTTTT gordsh1     TELAPSE        2.05 TCPU        0.04

 MATRIX SIZE: P(G) 1250720, F(G)  228668, P(G) IRR  630608, F(G) IRR  230296
 MAX G-VECTOR INDEX FOR 1- AND 2-ELECTRON INTEGRALS 111

 TTTTTTTTTTTTTTTTTTTTTTTTTTTTTT INPUT       TELAPSE        2.09 TCPU        0.06

 NEIGHBORS OF THE NON-EQUIVALENT ATOMS

 N = NUMBER OF NEIGHBORS AT DISTANCE R
    ATOM  N     R/ANG      R/AU   NEIGHBORS (ATOM LABELS AND CELL INDICES)
   1 SR   8     2.6091     4.9304    9 O    0 0 0    9 O    0 0 1   10 O    0 0 0
                                    10 O    0 0 1   13 O    0 0 0   13 O    0 0 1
                                    15 O    0 0 0   15 O    0 0 1
   1 SR   8     3.2786     6.1956    5 CU   0 0 0    5 CU   0 0 1    6 CU   0 0 0
                                     6 CU   0 0 1    7 CU   0 0 0    7 CU   0 0 1
                                     8 CU   0 0 0    8 CU   0 0 1
   1 SR   2     3.3854     6.3975    1 SR   0 0-1    1 SR   0 0 1
   1 SR   4     3.9709     7.5039    2 SR   0 0 0    2 SR   0-1 0    3 SR   0 0 0
                                     3 SR  -1 0 0
   1 SR  16     4.7513     8.9787   11 O    0 0 0   11 O    0 0 1   11 O   -1 0 0
                                    11 O   -1 0 1   12 O    0 0 0   12 O    0 0 1
                                    12 O   -1 0 0   12 O   -1 0 1   14 O    0 0 0
                                    14 O    0 0 1   14 O    0-1 0   14 O    0-1 1
                                    16 O    0 0 0   16 O    0 0 1   16 O    0-1 0
                                    16 O    0-1 1
   1 SR   8     5.2181     9.8608    2 SR   0 0 1    2 SR   0 0-1    2 SR   0-1-1
                                     2 SR   0-1 1    3 SR   0 0 1    3 SR   0 0-1
                                     3 SR  -1 0-1    3 SR  -1 0 1

   2 SR   8     2.6091     4.9304    9 O    0 1 0    9 O    0 1 1   10 O    0 0 0
                                    10 O    0 0 1   14 O    0 0 0   14 O    0 0 1
                                    16 O    0 0 0   16 O    0 0 1
   2 SR   8     3.2786     6.1956    5 CU   0 1 0    5 CU   0 1 1    6 CU   0 0 0
                                     6 CU   0 0 1    7 CU   0 1 0    7 CU   0 1 1
                                     8 CU   0 0 0    8 CU   0 0 1
   2 SR   2     3.3854     6.3975    2 SR   0 0-1    2 SR   0 0 1
   2 SR   4     3.9709     7.5039    1 SR   0 0 0    1 SR   0 1 0    4 SR   0 0 0
                                     4 SR  -1 0 0
   2 SR  16     4.7513     8.9787   11 O    0 1 0   11 O    0 1 1   11 O   -1 1 0
                                    11 O   -1 1 1   12 O    0 0 0   12 O    0 0 1
                                    12 O   -1 0 0   12 O   -1 0 1   13 O    0 0 0
                                    13 O    0 0 1   13 O    0 1 0   13 O    0 1 1
                                    15 O    0 0 0   15 O    0 0 1   15 O    0 1 0
                                    15 O    0 1 1
   2 SR   8     5.2181     9.8608    1 SR   0 0-1    1 SR   0 0 1    1 SR   0 1 1
                                     1 SR   0 1-1    4 SR   0 0 1    4 SR   0 0-1
                                     4 SR  -1 0-1    4 SR  -1 0 1

   3 SR   8     2.6091     4.9304   11 O    0 0 0   11 O    0 0 1   12 O    0 0 0
                                    12 O    0 0 1   13 O    1 0 0   13 O    1 0 1
                                    15 O    0 0 0   15 O    0 0 1
   3 SR   8     3.2786     6.1956    5 CU   1 0 0    5 CU   1 0 1    6 CU   1 0 0
                                     6 CU   1 0 1    7 CU   0 0 0    7 CU   0 0 1
                                     8 CU   0 0 0    8 CU   0 0 1
   3 SR   2     3.3854     6.3975    3 SR   0 0-1    3 SR   0 0 1
   3 SR   4     3.9709     7.5039    1 SR   0 0 0    1 SR   1 0 0    4 SR   0 0 0
                                     4 SR   0-1 0
   3 SR  16     4.7513     8.9787    9 O    0 0 0    9 O    0 0 1    9 O    1 0 0
                                     9 O    1 0 1   10 O    0 0 0   10 O    0 0 1
                                    10 O    1 0 0   10 O    1 0 1   14 O    1 0 0
                                    14 O    1 0 1   14 O    1-1 0   14 O    1-1 1
                                    16 O    0 0 0   16 O    0 0 1   16 O    0-1 0
                                    16 O    0-1 1
   3 SR   8     5.2181     9.8608    1 SR   0 0-1    1 SR   0 0 1    1 SR   1 0 1
                                     1 SR   1 0-1    4 SR   0 0 1    4 SR   0 0-1
                                     4 SR   0-1-1    4 SR   0-1 1

   4 SR   8     2.6091     4.9304   11 O    0 1 0   11 O    0 1 1   12 O    0 0 0
                                    12 O    0 0 1   14 O    1 0 0   14 O    1 0 1
                                    16 O    0 0 0   16 O    0 0 1
   4 SR   8     3.2786     6.1956    5 CU   1 1 0    5 CU   1 1 1    6 CU   1 0 0
                                     6 CU   1 0 1    7 CU   0 1 0    7 CU   0 1 1
                                     8 CU   0 0 0    8 CU   0 0 1
   4 SR   2     3.3854     6.3975    4 SR   0 0-1    4 SR   0 0 1
   4 SR   4     3.9709     7.5039    2 SR   0 0 0    2 SR   1 0 0    3 SR   0 0 0
                                     3 SR   0 1 0
   4 SR  16     4.7513     8.9787    9 O    0 1 0    9 O    0 1 1    9 O    1 1 0
                                     9 O    1 1 1   10 O    0 0 0   10 O    0 0 1
                                    10 O    1 0 0   10 O    1 0 1   13 O    1 0 0
                                    13 O    1 0 1   13 O    1 1 0   13 O    1 1 1
                                    15 O    0 0 0   15 O    0 0 1   15 O    0 1 0
                                    15 O    0 1 1
   4 SR   8     5.2181     9.8608    2 SR   0 0-1    2 SR   0 0 1    2 SR   1 0 1
                                     2 SR   1 0-1    3 SR   0 0-1    3 SR   0 0 1
                                     3 SR   0 1 1    3 SR   0 1-1

   5 CU   4     1.9854     3.7519    9 O    0 0 0   11 O   -1 0 0   13 O    0 0 0
                                    14 O    0-1 0
   5 CU   8     3.2786     6.1956    1 SR   0 0 0    1 SR   0 0-1    2 SR   0-1 0
                                     2 SR   0-1-1    3 SR  -1 0 0    3 SR  -1 0-1
                                     4 SR  -1-1 0    4 SR  -1-1-1
   5 CU   2     3.3854     6.3975    5 CU   0 0-1    5 CU   0 0 1
   5 CU   8     3.9247     7.4165    9 O    0 0 1    9 O    0 0-1   11 O   -1 0-1
                                    11 O   -1 0 1   13 O    0 0 1   13 O    0 0-1
                                    14 O    0-1-1   14 O    0-1 1
   5 CU   4     3.9709     7.5039    6 CU   0 0 0    6 CU   0-1 0    7 CU   0 0 0
                                     7 CU  -1 0 0
   5 CU   8     4.4396     8.3896   10 O    0 0 0   10 O    0-1 0   12 O   -1 0 0
                                    12 O   -1-1 0   15 O    0 0 0   15 O   -1 0 0
                                    16 O    0-1 0   16 O   -1-1 0

   6 CU   4     1.9854     3.7519   10 O    0 0 0   12 O   -1 0 0   13 O    0 0 0
                                    14 O    0 0 0
   6 CU   8     3.2786     6.1956    1 SR   0 0 0    1 SR   0 0-1    2 SR   0 0 0
                                     2 SR   0 0-1    3 SR  -1 0 0    3 SR  -1 0-1
                                     4 SR  -1 0 0    4 SR  -1 0-1
   6 CU   2     3.3854     6.3975    6 CU   0 0-1    6 CU   0 0 1
   6 CU   8     3.9247     7.4165   10 O    0 0 1   10 O    0 0-1   12 O   -1 0-1
                                    12 O   -1 0 1   13 O    0 0-1   13 O    0 0 1
                                    14 O    0 0 1   14 O    0 0-1
   6 CU   4     3.9709     7.5039    5 CU   0 0 0    5 CU   0 1 0    8 CU   0 0 0
                                     8 CU  -1 0 0
   6 CU   8     4.4396     8.3896    9 O    0 0 0    9 O    0 1 0   11 O   -1 0 0
                                    11 O   -1 1 0   15 O    0 0 0   15 O   -1 0 0
                                    16 O    0 0 0   16 O   -1 0 0

   7 CU   4     1.9854     3.7519    9 O    0 0 0   11 O    0 0 0   15 O    0 0 0
                                    16 O    0-1 0
   7 CU   8     3.2786     6.1956    1 SR   0 0 0    1 SR   0 0-1    2 SR   0-1 0
                                     2 SR   0-1-1    3 SR   0 0 0    3 SR   0 0-1
                                     4 SR   0-1 0    4 SR   0-1-1
   7 CU   2     3.3854     6.3975    7 CU   0 0-1    7 CU   0 0 1
   7 CU   8     3.9247     7.4165    9 O    0 0-1    9 O    0 0 1   11 O    0 0 1
                                    11 O    0 0-1   15 O    0 0 1   15 O    0 0-1
                                    16 O    0-1-1   16 O    0-1 1
   7 CU   4     3.9709     7.5039    5 CU   0 0 0    5 CU   1 0 0    8 CU   0 0 0
                                     8 CU   0-1 0
   7 CU   8     4.4396     8.3896   10 O    0 0 0   10 O    0-1 0   12 O    0 0 0
                                    12 O    0-1 0   13 O    0 0 0   13 O    1 0 0
                                    14 O    0-1 0   14 O    1-1 0

   8 CU   4     1.9854     3.7519   10 O    0 0 0   12 O    0 0 0   15 O    0 0 0
                                    16 O    0 0 0
   8 CU   8     3.2786     6.1956    1 SR   0 0 0    1 SR   0 0-1    2 SR   0 0 0
                                     2 SR   0 0-1    3 SR   0 0 0    3 SR   0 0-1
                                     4 SR   0 0 0    4 SR   0 0-1
   8 CU   2     3.3854     6.3975    8 CU   0 0-1    8 CU   0 0 1
   8 CU   8     3.9247     7.4165   10 O    0 0-1   10 O    0 0 1   12 O    0 0 1
                                    12 O    0 0-1   15 O    0 0-1   15 O    0 0 1
                                    16 O    0 0 1   16 O    0 0-1
   8 CU   4     3.9709     7.5039    6 CU   0 0 0    6 CU   1 0 0    7 CU   0 0 0
                                     7 CU   0 1 0
   8 CU   8     4.4396     8.3896    9 O    0 0 0    9 O    0 1 0   11 O    0 0 0
                                    11 O    0 1 0   13 O    0 0 0   13 O    1 0 0
                                    14 O    0 0 0   14 O    1 0 0

   9 O    2     1.9854     3.7519    5 CU   0 0 0    7 CU   0 0 0
   9 O    4     2.6091     4.9304    1 SR   0 0 0    1 SR   0 0-1    2 SR   0-1 0
                                     2 SR   0-1-1
   9 O    4     2.8078     5.3060   13 O    0 0 0   14 O    0-1 0   15 O    0 0 0
                                    16 O    0-1 0
   9 O    2     3.3854     6.3975    9 O    0 0-1    9 O    0 0 1
   9 O    4     3.9247     7.4165    5 CU   0 0-1    5 CU   0 0 1    7 CU   0 0 1
                                     7 CU   0 0-1
   9 O    4     3.9709     7.5039   10 O    0 0 0   10 O    0-1 0   11 O    0 0 0
                                    11 O   -1 0 0

  10 O    2     1.9854     3.7519    6 CU   0 0 0    8 CU   0 0 0
  10 O    4     2.6091     4.9304    1 SR   0 0 0    1 SR   0 0-1    2 SR   0 0 0
                                     2 SR   0 0-1
  10 O    4     2.8078     5.3060   13 O    0 0 0   14 O    0 0 0   15 O    0 0 0
                                    16 O    0 0 0
  10 O    2     3.3854     6.3975   10 O    0 0-1   10 O    0 0 1
  10 O    4     3.9247     7.4165    6 CU   0 0-1    6 CU   0 0 1    8 CU   0 0 1
                                     8 CU   0 0-1
  10 O    4     3.9709     7.5039    9 O    0 0 0    9 O    0 1 0   12 O    0 0 0
                                    12 O   -1 0 0

  11 O    2     1.9854     3.7519    5 CU   1 0 0    7 CU   0 0 0
  11 O    4     2.6091     4.9304    3 SR   0 0 0    3 SR   0 0-1    4 SR   0-1 0
                                     4 SR   0-1-1
  11 O    4     2.8078     5.3060   13 O    1 0 0   14 O    1-1 0   15 O    0 0 0
                                    16 O    0-1 0
  11 O    2     3.3854     6.3975   11 O    0 0-1   11 O    0 0 1
  11 O    4     3.9247     7.4165    5 CU   1 0 1    5 CU   1 0-1    7 CU   0 0-1
                                     7 CU   0 0 1
  11 O    4     3.9709     7.5039    9 O    0 0 0    9 O    1 0 0   12 O    0 0 0
                                    12 O    0-1 0

  12 O    2     1.9854     3.7519    6 CU   1 0 0    8 CU   0 0 0
  12 O    4     2.6091     4.9304    3 SR   0 0 0    3 SR   0 0-1    4 SR   0 0 0
                                     4 SR   0 0-1
  12 O    4     2.8078     5.3060   13 O    1 0 0   14 O    1 0 0   15 O    0 0 0
                                    16 O    0 0 0
  12 O    2     3.3854     6.3975   12 O    0 0-1   12 O    0 0 1
  12 O    4     3.9247     7.4165    6 CU   1 0 1    6 CU   1 0-1    8 CU   0 0-1
                                     8 CU   0 0 1
  12 O    4     3.9709     7.5039   10 O    0 0 0   10 O    1 0 0   11 O    0 0 0
                                    11 O    0 1 0

  13 O    2     1.9854     3.7519    5 CU   0 0 0    6 CU   0 0 0
  13 O    4     2.6091     4.9304    1 SR   0 0 0    1 SR   0 0-1    3 SR  -1 0 0
                                     3 SR  -1 0-1
  13 O    4     2.8078     5.3060    9 O    0 0 0   10 O    0 0 0   11 O   -1 0 0
                                    12 O   -1 0 0
  13 O    2     3.3854     6.3975   13 O    0 0-1   13 O    0 0 1
  13 O    4     3.9247     7.4165    5 CU   0 0-1    5 CU   0 0 1    6 CU   0 0 1
                                     6 CU   0 0-1
  13 O    4     3.9709     7.5039   14 O    0 0 0   14 O    0-1 0   15 O    0 0 0
                                    15 O   -1 0 0

  14 O    2     1.9854     3.7519    5 CU   0 1 0    6 CU   0 0 0
  14 O    4     2.6091     4.9304    2 SR   0 0 0    2 SR   0 0-1    4 SR  -1 0 0
                                     4 SR  -1 0-1
  14 O    4     2.8078     5.3060    9 O    0 1 0   10 O    0 0 0   11 O   -1 1 0
                                    12 O   -1 0 0
  14 O    2     3.3854     6.3975   14 O    0 0-1   14 O    0 0 1
  14 O    4     3.9247     7.4165    5 CU   0 1 1    5 CU   0 1-1    6 CU   0 0-1
                                     6 CU   0 0 1
  14 O    4     3.9709     7.5039   13 O    0 0 0   13 O    0 1 0   16 O    0 0 0
                                    16 O   -1 0 0

  15 O    2     1.9854     3.7519    7 CU   0 0 0    8 CU   0 0 0
  15 O    4     2.6091     4.9304    1 SR   0 0 0    1 SR   0 0-1    3 SR   0 0 0
                                     3 SR   0 0-1
  15 O    4     2.8078     5.3060    9 O    0 0 0   10 O    0 0 0   11 O    0 0 0
                                    12 O    0 0 0
  15 O    2     3.3854     6.3975   15 O    0 0-1   15 O    0 0 1
  15 O    4     3.9247     7.4165    7 CU   0 0-1    7 CU   0 0 1    8 CU   0 0 1
                                     8 CU   0 0-1
  15 O    4     3.9709     7.5039   13 O    0 0 0   13 O    1 0 0   16 O    0 0 0
                                    16 O    0-1 0

  16 O    2     1.9854     3.7519    7 CU   0 1 0    8 CU   0 0 0
  16 O    4     2.6091     4.9304    2 SR   0 0 0    2 SR   0 0-1    4 SR   0 0 0
                                     4 SR   0 0-1
  16 O    4     2.8078     5.3060    9 O    0 1 0   10 O    0 0 0   11 O    0 1 0
                                    12 O    0 0 0
  16 O    2     3.3854     6.3975   16 O    0 0-1   16 O    0 0 1
  16 O    4     3.9247     7.4165    7 CU   0 1 1    7 CU   0 1-1    8 CU   0 0-1
                                     8 CU   0 0 1
  16 O    4     3.9709     7.5039   14 O    0 0 0   14 O    1 0 0   15 O    0 0 0
                                    15 O    0 1 0


 SYMMETRY ALLOWED INTERNAL DEGREE(S) OF FREEDOM:  45
 TTTTTTTTTTTTTTTTTTTTTTTTTTTTTT SYMM        TELAPSE        2.12 TCPU        0.09
 TTTTTTTTTTTTTTTTTTTTTTTTTTTTTT INT_SCREEN  TELAPSE        2.14 TCPU        0.11
 INFORMATION **** EXCBUF **** EXCH. BIPO BUFFER: WORDS USED =     4288050

 DFT PARAMETERS

     ATOM       ELECTRONS   NET CHARGE   R(ANGSTROM)
   1 238  SR      0.0000      2.0000     1.18000000
   5 229  CU     17.2500      1.7500     0.74000000
   9 208  O       8.0000     -2.0000     1.40000000
[golub090:64973] 31 more processes have sent help message help-mpi-btl-openib.txt / no device params found
[golub090:64973] Set MCA parameter "orte_base_help_aggregate" to 0 to see all help / error messages

 SIZE OF GRID=     346048
 TTTTTTTTTTTTTTTTTTTTTTTTTTTTTT MAKE_GRID2  TELAPSE        7.19 TCPU        5.15
 BECKE WEIGHT FUNCTION
 RADSAFE =     2.00
 TOLERANCES - DENSITY:10**- 6; POTENTIAL:10**- 9; GRID WGT:10**-14

 RADIAL INTEGRATION  - INTERVALS (POINTS,UPPER LIMIT):            1( 75,  4.0*R)

 ANGULAR INTEGRATION - INTERVALS (ACCURACY LEVEL [N. POINTS] UPPER LIMIT):
  1(  4[  86]   0.2)  2(  8[ 194]   0.5)  3( 12[ 350]   0.9)  4( 16[ 974]   3.5)
  5( 12[ 350]9999.0)
 TTTTTTTTTTTTTTTTTTTTTTTTTTTTTT INT_CALC    TELAPSE        7.24 TCPU        5.20
 EEEEEEEEEE INT_CALC TERMINATION  DATE 23 01 2018 TIME 06:51:17.4

 *******************************************************************************
 Generated by CrystalWriter                                                      
 CRYSTAL - SCF - TYPE OF CALCULATION :  UNRESTRICTED OPEN SHELL
 *******************************************************************************

 CAPPA:IS1  6;IS2  6;IS3  4; K PTS MONK NET  76; SYMMOPS:K SPACE   2;G SPACE   1

 TTTTTTTTTTTTTTTTTTTTTTTTTTTTTT SDIK        TELAPSE        7.53 TCPU        5.47

 AAAAAAAAAAAAAAAAAAAAAAAAAAAAAAAAAAAAAAAAAAAAAAAAAAAAAAAAAAAAAAAAAAAAAAAAAAAAAAA
         ATOMIC WAVEFUNCTION(S)


 NUCLEAR CHARGE 19.0  SYMMETRY SPECIES            S    P    D
 N. ELECTRONS   17.2  NUMBER OF PRIMITIVE GTOS   14    9    7
                      NUMBER OF CONTRACTED GTOS   4    3    3
                      NUMBER OF CLOSED SHELLS     1    1    0
                      OPEN SHELL OCCUPATION       0    0    9

  ZNUC SCFIT  TOTAL HF ENERGY   KINETIC ENERGY   VIRIAL THEOREM ACCURACY
  19.0  24   -1.953432393E+02  1.248337040E+02 -2.564827712E+00  3.3E-06

 NUCLEAR CHARGE  6.0  SYMMETRY SPECIES            S    P
 N. ELECTRONS    8.0  NUMBER OF PRIMITIVE GTOS   10    9
                      NUMBER OF CONTRACTED GTOS   3    3
                      NUMBER OF CLOSED SHELLS     1    1
                      OPEN SHELL OCCUPATION       0    0

  ZNUC SCFIT  TOTAL HF ENERGY   KINETIC ENERGY   VIRIAL THEOREM ACCURACY
   6.0  43   -1.519668598E+01  1.229882609E+01 -2.235620852E+00  4.1E-06

 AAAAAAAAAAAAAAAAAAAAAAAAAAAAAAAAAAAAAAAAAAAAAAAAAAAAAAAAAAAAAAAAAAAAAAAAAAAAAAA

 CHARGE NORMALIZATION FACTOR   1.00757576
 TOTAL ATOMIC CHARGES:
   0.0000000   0.0000000   0.0000000   0.0000000  17.1287879  17.1287879
  17.1287879  17.1287879   8.0606061   8.0606061   8.0606061   8.0606061
   8.0606061   8.0606061   8.0606061   8.0606061
 SUMMED SPIN DENSITY           2.01515151
 TOTAL ATOMIC SPINS  :
   0.0000000   0.0000000   0.0000000   0.0000000  -1.0075758   1.0075758
   1.0075758   1.0075758   0.0000000   0.0000000   0.0000000   0.0000000
   0.0000000   0.0000000   0.0000000   0.0000000
 TTTTTTTTTTTTTTTTTTTTTTTTTTTTTT MOQGAD      TELAPSE        7.73 TCPU        5.66
 TTTTTTTTTTTTTTTTTTTTTTTTTTTTTT SHELLXN     TELAPSE      234.81 TCPU      232.45
 TTTTTTTTTTTTTTTTTTTTTTTTTTTTTT MONMO3      TELAPSE      275.57 TCPU      273.08
 NUMERICALLY INTEGRATED DENSITY     67.5076224509     65.4924658203
 TTTTTTTTTTTTTTTTTTTTTTTTTTTTTT NUMDFT      TELAPSE      277.16 TCPU      274.67
 CYC   0 ETOT(AU) -9.211562074908E+02 DETOT -9.21E+02 tst  0.00E+00 PX  1.00E+00
 CYCLE  0 WAVE FUNCTION SAVED IN FORTRAN UNIT 79
 TTTTTTTTTTTTTTTTTTTTTTTTTTTTTT DIIS        TELAPSE      278.37 TCPU      274.79
 TTTTTTTTTTTTTTTTTTTTTTTTTTTTTT FDIK        TELAPSE      284.56 TCPU      280.79
 SPIN LOCKING: NO ENERGY GAP COMPUTED
 TTTTTTTTTTTTTTTTTTTTTTTTTTTTTT PDIG        TELAPSE      284.80 TCPU      281.01
 CHARGE NORMALIZATION FACTOR   1.00000000
 TOTAL ATOMIC CHARGES:
   0.1704361   0.1704360   0.1704361   0.1704360  18.5408120  18.0528359
  18.0528356  17.9684616   7.4783527   7.4474747   7.4783529   7.4474748
   7.4783529   7.4783526   7.4474752   7.4474748
 SUMMED SPIN DENSITY           3.00000000
 TOTAL ATOMIC SPINS  :
   0.0001402   0.0001402   0.0001402   0.0001402   0.0611380   0.6403703
   0.6403703   0.7173366   0.1065902   0.1284658   0.1065902   0.1284658
   0.1065902   0.1065902   0.1284658   0.1284659
 TTTTTTTTTTTTTTTTTTTTTTTTTTTTTT MOQGAD      TELAPSE      284.82 TCPU      281.03
 TTTTTTTTTTTTTTTTTTTTTTTTTTTTTT SHELLXN     TELAPSE      529.36 TCPU      524.14
 TTTTTTTTTTTTTTTTTTTTTTTTTTTTTT MONMO3      TELAPSE      570.10 TCPU      564.88
 NUMERICALLY INTEGRATED DENSITY     67.9998932780     64.9998792527
 TTTTTTTTTTTTTTTTTTTTTTTTTTTTTT NUMDFT      TELAPSE      575.69 TCPU      570.12
 CYC   1 ETOT(AU) -9.207243713904E+02 DETOT  4.32E-01 tst  0.00E+00 PX  1.00E+00
 CYCLE  1 WAVE FUNCTION SAVED IN FORTRAN UNIT 79
 TTTTTTTTTTTTTTTTTTTTTTTTTTTTTT DIIS        TELAPSE      577.06 TCPU      570.95
 DIIS TEST: 0.17820E+01 AT SCF   CYCLE   1 - MIX   90 %
 TTTTTTTTTTTTTTTTTTTTTTTTTTTTTT FDIK        TELAPSE      578.85 TCPU      572.67
 SPIN LOCKING: NO ENERGY GAP COMPUTED
 TTTTTTTTTTTTTTTTTTTTTTTTTTTTTT PDIG        TELAPSE      579.10 TCPU      572.91
 CHARGE NORMALIZATION FACTOR   1.00000000
 TOTAL ATOMIC CHARGES:
   0.1712332   0.1712312   0.1712314   0.1712331  18.3949316  18.1502177
  18.1501896  18.0832603   7.4500882   7.4340215   7.4500882   7.4340215
   7.4501041   7.4501032   7.4340228   7.4340222
 SUMMED SPIN DENSITY           3.00000000
 TOTAL ATOMIC SPINS  :
   0.0005297   0.0005351   0.0005349   0.0005299   0.1427257   0.5696447
   0.5696826   0.6419618   0.1291660   0.1393078   0.1291661   0.1393079
   0.1291654   0.1291658   0.1392881   0.1392883
 TTTTTTTTTTTTTTTTTTTTTTTTTTTTTT MOQGAD      TELAPSE      579.12 TCPU      572.93
 TTTTTTTTTTTTTTTTTTTTTTTTTTTTTT SHELLXN     TELAPSE      823.52 TCPU      816.11
 TTTTTTTTTTTTTTTTTTTTTTTTTTTTTT MONMO3      TELAPSE      864.41 TCPU      856.85
 NUMERICALLY INTEGRATED DENSITY     67.9998931281     64.9998877000
 TTTTTTTTTTTTTTTTTTTTTTTTTTTTTT NUMDFT      TELAPSE      870.16 TCPU      862.56
 CYC   2 ETOT(AU) -9.208526377038E+02 DETOT -1.28E-01 tst  2.27E-03 PX  1.07E-01
 CYCLE  2 WAVE FUNCTION SAVED IN FORTRAN UNIT 79
 TTTTTTTTTTTTTTTTTTTTTTTTTTTTTT DIIS        TELAPSE      871.51 TCPU      863.72
 DIIS TEST: 0.48718E+00 AT SCF   CYCLE   2 - DIIS ACTIVE - HISTORY:     2 CYCLES
 TTTTTTTTTTTTTTTTTTTTTTTTTTTTTT FDIK        TELAPSE      873.54 TCPU      865.73
 SPIN LOCKING: NO ENERGY GAP COMPUTED
 TTTTTTTTTTTTTTTTTTTTTTTTTTTTTT PDIG        TELAPSE      875.20 TCPU      867.39
 CHARGE NORMALIZATION FACTOR   1.00000000
 TOTAL ATOMIC CHARGES:
   0.1806572   0.1806806   0.1806808   0.1806573  18.3789781  18.0197601
  18.0200123  18.0597079   7.4904901   7.4591561   7.4904904   7.4591564
   7.4906513   7.4906484   7.4591360   7.4591369
 SUMMED SPIN DENSITY           3.00000000
 TOTAL ATOMIC SPINS  :
  -0.0015975  -0.0016002  -0.0016004  -0.0015976   0.1473232   0.5727408
   0.5726119   0.6277156   0.1216198   0.1498818   0.1216199   0.1498817
   0.1215576   0.1215553   0.1499436   0.1499447
 TTTTTTTTTTTTTTTTTTTTTTTTTTTTTT MOQGAD      TELAPSE      875.24 TCPU      867.43
 TTTTTTTTTTTTTTTTTTTTTTTTTTTTTT SHELLXN     TELAPSE     1120.03 TCPU     1110.80
 TTTTTTTTTTTTTTTTTTTTTTTTTTTTTT MONMO3      TELAPSE     1161.45 TCPU     1152.05
 NUMERICALLY INTEGRATED DENSITY     67.9998924147     64.9998797339
 TTTTTTTTTTTTTTTTTTTTTTTTTTTTTT NUMDFT      TELAPSE     1167.21 TCPU     1157.67
 CYC   3 ETOT(AU) -9.208468309583E+02 DETOT  5.81E-03 tst  1.62E-03 PX  1.33E-01
 CYCLE  3 WAVE FUNCTION SAVED IN FORTRAN UNIT 79
 TTTTTTTTTTTTTTTTTTTTTTTTTTTTTT DIIS        TELAPSE     1168.83 TCPU     1159.16
 DIIS TEST: 0.68705E+00 AT SCF   CYCLE   3 - DIIS ACTIVE - HISTORY:     3 CYCLES
 TTTTTTTTTTTTTTTTTTTTTTTTTTTTTT FDIK        TELAPSE     1170.56 TCPU     1160.87
 SPIN LOCKING: NO ENERGY GAP COMPUTED
 TTTTTTTTTTTTTTTTTTTTTTTTTTTTTT PDIG        TELAPSE     1170.81 TCPU     1161.12
 CHARGE NORMALIZATION FACTOR   1.00000000
 TOTAL ATOMIC CHARGES:
   0.1836033   0.1835957   0.1835959   0.1836033  18.0304030  18.1124358
  18.1126546  18.0721255   7.4963411   7.4881011   7.4963415   7.4881013
   7.4964580   7.4964553   7.4880917   7.4880928
 SUMMED SPIN DENSITY           3.00000000
 TOTAL ATOMIC SPINS  :
  -0.0018529  -0.0018593  -0.0018595  -0.0018528   0.3783635   0.5108470
   0.5106464   0.5939802   0.1223842   0.1310837   0.1223840   0.1310836
   0.1222697   0.1222669   0.1310572   0.1310582
 TTTTTTTTTTTTTTTTTTTTTTTTTTTTTT MOQGAD      TELAPSE     1170.83 TCPU     1161.14
 TTTTTTTTTTTTTTTTTTTTTTTTTTTTTT SHELLXN     TELAPSE     1415.56 TCPU     1404.49
 TTTTTTTTTTTTTTTTTTTTTTTTTTTTTT MONMO3      TELAPSE     1455.16 TCPU     1444.01
 NUMERICALLY INTEGRATED DENSITY     67.9998754490     64.9998641212
 TTTTTTTTTTTTTTTTTTTTTTTTTTTTTT NUMDFT      TELAPSE     1460.73 TCPU     1449.57
 CYC   4 ETOT(AU) -9.209034543626E+02 DETOT -5.66E-02 tst  4.47E-03 PX  3.30E-01
 CYCLE  4 WAVE FUNCTION SAVED IN FORTRAN UNIT 79
 TTTTTTTTTTTTTTTTTTTTTTTTTTTTTT DIIS        TELAPSE     1462.49 TCPU     1451.17
 DIIS TEST: 0.16460E+00 AT SCF   CYCLE   4 - DIIS ACTIVE - HISTORY:     4 CYCLES
 TTTTTTTTTTTTTTTTTTTTTTTTTTTTTT FDIK        TELAPSE     1464.45 TCPU     1452.93
 SPIN LOCKING: NO ENERGY GAP COMPUTED
 TTTTTTTTTTTTTTTTTTTTTTTTTTTTTT PDIG        TELAPSE     1465.08 TCPU     1453.39
 CHARGE NORMALIZATION FACTOR   1.00000000
 TOTAL ATOMIC CHARGES:
   0.1853259   0.1853155   0.1853159   0.1853257  18.1788604  18.1250135
  18.1248242  18.0795582   7.4733094   7.4642831   7.4733087   7.4642834
   7.4733391   7.4733361   7.4642999   7.4643010
 SUMMED SPIN DENSITY           3.00000000
 TOTAL ATOMIC SPINS  :
  -0.0022409  -0.0022513  -0.0022517  -0.0022406   0.3245640   0.5173602
   0.5174617   0.6119723   0.1231381   0.1362815   0.1231390   0.1362805
   0.1231297   0.1231278   0.1362646   0.1362651
 TTTTTTTTTTTTTTTTTTTTTTTTTTTTTT MOQGAD      TELAPSE     1465.10 TCPU     1453.41
 TTTTTTTTTTTTTTTTTTTTTTTTTTTTTT SHELLXN     TELAPSE     1710.63 TCPU     1696.70
 TTTTTTTTTTTTTTTTTTTTTTTTTTTTTT MONMO3      TELAPSE     1750.65 TCPU     1736.61
 NUMERICALLY INTEGRATED DENSITY     67.9998798879     64.9998643758
 TTTTTTTTTTTTTTTTTTTTTTTTTTTTTT NUMDFT      TELAPSE     1756.19 TCPU     1742.13
 CYC   5 ETOT(AU) -9.209182420759E+02 DETOT -1.48E-02 tst  3.67E-04 PX  7.59E-02
 CYCLE  5 WAVE FUNCTION SAVED IN FORTRAN UNIT 79
 TTTTTTTTTTTTTTTTTTTTTTTTTTTTTT DIIS        TELAPSE     1757.66 TCPU     1742.85
 DIIS TEST: 0.97739E-02 AT SCF   CYCLE   5 - DIIS ACTIVE - HISTORY:     5 CYCLES
 TTTTTTTTTTTTTTTTTTTTTTTTTTTTTT FDIK        TELAPSE     1759.58 TCPU     1744.67
 SPIN LOCKING: NO ENERGY GAP COMPUTED
 TTTTTTTTTTTTTTTTTTTTTTTTTTTTTT PDIG        TELAPSE     1759.83 TCPU     1744.92
 CHARGE NORMALIZATION FACTOR   1.00000000
 TOTAL ATOMIC CHARGES:
   0.1824803   0.1824801   0.1824804   0.1824801  18.1322821  18.1116131
  18.1119753  18.1225720   7.4801131   7.4677952   7.4801134   7.4677944
   7.4801109   7.4801099   7.4677999   7.4677998
 SUMMED SPIN DENSITY           3.00000000
 TOTAL ATOMIC SPINS  :
  -0.0023955  -0.0023970  -0.0023970  -0.0023954   0.3648471   0.5205788
   0.5202963   0.5835986   0.1216482   0.1334184   0.1216481   0.1334182
   0.1216582   0.1216577   0.1334072   0.1334079
 TTTTTTTTTTTTTTTTTTTTTTTTTTTTTT MOQGAD      TELAPSE     1759.85 TCPU     1744.93
 TTTTTTTTTTTTTTTTTTTTTTTTTTTTTT SHELLXN     TELAPSE     2004.74 TCPU     1988.22
 TTTTTTTTTTTTTTTTTTTTTTTTTTTTTT MONMO3      TELAPSE     2046.68 TCPU     2029.93
 NUMERICALLY INTEGRATED DENSITY     67.9998835121     64.9998659980
 TTTTTTTTTTTTTTTTTTTTTTTTTTTTTT NUMDFT      TELAPSE     2052.23 TCPU     2035.48
 CYC   6 ETOT(AU) -9.209179655315E+02 DETOT  2.77E-04 tst  2.53E-04 PX  4.89E-02
 CYCLE  6 WAVE FUNCTION SAVED IN FORTRAN UNIT 79
 TTTTTTTTTTTTTTTTTTTTTTTTTTTTTT DIIS        TELAPSE     2053.59 TCPU     2036.14
 DIIS TEST: 0.16971E-01 AT SCF   CYCLE   6 - DIIS ACTIVE - HISTORY:     6 CYCLES
 TTTTTTTTTTTTTTTTTTTTTTTTTTTTTT FDIK        TELAPSE     2055.35 TCPU     2037.89
 SPIN LOCKING: NO ENERGY GAP COMPUTED
 TTTTTTTTTTTTTTTTTTTTTTTTTTTTTT PDIG        TELAPSE     2055.60 TCPU     2038.14
 CHARGE NORMALIZATION FACTOR   1.00000000
 TOTAL ATOMIC CHARGES:
   0.1827775   0.1827776   0.1827778   0.1827774  18.1473193  18.1290575
  18.1286672  18.0732899   7.4784568   7.4691865   7.4784571   7.4691860
   7.4784642   7.4784638   7.4691708   7.4691704
 SUMMED SPIN DENSITY           3.00000000
 TOTAL ATOMIC SPINS  :
  -0.0024882  -0.0024897  -0.0024898  -0.0024880   0.3562817   0.5105533
   0.5108637   0.6152792   0.1219997   0.1322426   0.1219999   0.1322421
   0.1219950   0.1219947   0.1322519   0.1322522
 TTTTTTTTTTTTTTTTTTTTTTTTTTTTTT MOQGAD      TELAPSE     2055.62 TCPU     2038.16
 TTTTTTTTTTTTTTTTTTTTTTTTTTTTTT SHELLXN     TELAPSE     2299.32 TCPU     2281.24
 TTTTTTTTTTTTTTTTTTTTTTTTTTTTTT MONMO3      TELAPSE     2341.31 TCPU     2323.19
 NUMERICALLY INTEGRATED DENSITY     67.9998845459     64.9998658486
 TTTTTTTTTTTTTTTTTTTTTTTTTTTTTT NUMDFT      TELAPSE     2346.93 TCPU     2328.80
 CYC   7 ETOT(AU) -9.209188626446E+02 DETOT -8.97E-04 tst  1.02E-04 PX  3.57E-02
 CYCLE  7 WAVE FUNCTION SAVED IN FORTRAN UNIT 79
 TTTTTTTTTTTTTTTTTTTTTTTTTTTTTT DIIS        TELAPSE     2348.34 TCPU     2329.67
 DIIS TEST: 0.83342E-02 AT SCF   CYCLE   7 - DIIS ACTIVE - HISTORY:     7 CYCLES
 TTTTTTTTTTTTTTTTTTTTTTTTTTTTTT FDIK        TELAPSE     2350.14 TCPU     2331.46
 SPIN LOCKING: NO ENERGY GAP COMPUTED
 TTTTTTTTTTTTTTTTTTTTTTTTTTTTTT PDIG        TELAPSE     2350.39 TCPU     2331.71
 CHARGE NORMALIZATION FACTOR   1.00000000
 TOTAL ATOMIC CHARGES:
   0.1837299   0.1837299   0.1837300   0.1837299  18.1401912  18.1184309
  18.1188468  18.1008664   7.4781200   7.4685661   7.4781197   7.4685659
   7.4781155   7.4781145   7.4685717   7.4685714
 SUMMED SPIN DENSITY           3.00000000
 TOTAL ATOMIC SPINS  :
  -0.0025693  -0.0025696  -0.0025696  -0.0025691   0.3710081   0.5145609
   0.5142307   0.5968158   0.1218242   0.1315955   0.1218245   0.1315957
   0.1218236   0.1218237   0.1315873   0.1315875
 TTTTTTTTTTTTTTTTTTTTTTTTTTTTTT MOQGAD      TELAPSE     2350.41 TCPU     2331.73
 TTTTTTTTTTTTTTTTTTTTTTTTTTTTTT SHELLXN     TELAPSE     2595.66 TCPU     2574.85
 TTTTTTTTTTTTTTTTTTTTTTTTTTTTTT MONMO3      TELAPSE     2635.94 TCPU     2614.53
 NUMERICALLY INTEGRATED DENSITY     67.9998843773     64.9998645730
 TTTTTTTTTTTTTTTTTTTTTTTTTTTTTT NUMDFT      TELAPSE     2641.49 TCPU     2620.04
 CYC   8 ETOT(AU) -9.209193640574E+02 DETOT -5.01E-04 tst  6.60E-05 PX  2.01E-02
 CYCLE  8 WAVE FUNCTION SAVED IN FORTRAN UNIT 79
 TTTTTTTTTTTTTTTTTTTTTTTTTTTTTT DIIS        TELAPSE     2643.10 TCPU     2620.67
 DIIS TEST: 0.37807E-02 AT SCF   CYCLE   8 - DIIS ACTIVE - HISTORY:     8 CYCLES
 TTTTTTTTTTTTTTTTTTTTTTTTTTTTTT FDIK        TELAPSE     2644.96 TCPU     2622.53
 SPIN LOCKING: NO ENERGY GAP COMPUTED
 TTTTTTTTTTTTTTTTTTTTTTTTTTTTTT PDIG        TELAPSE     2645.20 TCPU     2622.77
 CHARGE NORMALIZATION FACTOR   1.00000000
 TOTAL ATOMIC CHARGES:
   0.1834504   0.1834508   0.1834510   0.1834502  18.1451979  18.1175034
  18.1164408  18.0959155   7.4789882   7.4688052   7.4789885   7.4688051
   7.4789832   7.4789833   7.4687934   7.4687930
 SUMMED SPIN DENSITY           3.00000000
 TOTAL ATOMIC SPINS  :
  -0.0026033  -0.0026035  -0.0026034  -0.0026033   0.3738228   0.5133915
   0.5142004   0.5975564   0.1216334   0.1312257   0.1216339   0.1312258
   0.1216198   0.1216198   0.1312420   0.1312420
 TTTTTTTTTTTTTTTTTTTTTTTTTTTTTT MOQGAD      TELAPSE     2645.22 TCPU     2622.79
 TTTTTTTTTTTTTTTTTTTTTTTTTTTTTT SHELLXN     TELAPSE     2891.12 TCPU     2866.04
 TTTTTTTTTTTTTTTTTTTTTTTTTTTTTT MONMO3      TELAPSE     2930.41 TCPU     2905.32
 NUMERICALLY INTEGRATED DENSITY     67.9998851074     64.9998647478
 TTTTTTTTTTTTTTTTTTTTTTTTTTTTTT NUMDFT      TELAPSE     2936.25 TCPU     2911.03
 CYC   9 ETOT(AU) -9.209195475817E+02 DETOT -1.84E-04 tst  3.45E-06 PX  5.27E-03
 CYCLE  9 WAVE FUNCTION SAVED IN FORTRAN UNIT 79
 TTTTTTTTTTTTTTTTTTTTTTTTTTTTTT DIIS        TELAPSE     2937.89 TCPU     2911.99
 DIIS TEST: 0.20890E-02 AT SCF   CYCLE   9 - DIIS ACTIVE - HISTORY:     9 CYCLES
 TTTTTTTTTTTTTTTTTTTTTTTTTTTTTT FDIK        TELAPSE     2939.67 TCPU     2913.77
 SPIN LOCKING: NO ENERGY GAP COMPUTED
 TTTTTTTTTTTTTTTTTTTTTTTTTTTTTT PDIG        TELAPSE     2939.92 TCPU     2914.01
 CHARGE NORMALIZATION FACTOR   1.00000000
 TOTAL ATOMIC CHARGES:
   0.1834157   0.1834157   0.1834159   0.1834156  18.1450564  18.1132171
  18.1207550  18.0967737   7.4780573   7.4695185   7.4780574   7.4695185
   7.4780696   7.4780696   7.4696224   7.4696218
 SUMMED SPIN DENSITY           3.00000000
 TOTAL ATOMIC SPINS  :
  -0.0026330  -0.0026332  -0.0026332  -0.0026329   0.3809733   0.5150715
   0.5094863   0.5949171   0.1219054   0.1306246   0.1219060   0.1306246
   0.1219903   0.1219904   0.1305214   0.1305215
 TTTTTTTTTTTTTTTTTTTTTTTTTTTTTT MOQGAD      TELAPSE     2939.94 TCPU     2914.03
 TTTTTTTTTTTTTTTTTTTTTTTTTTTTTT SHELLXN     TELAPSE     3184.00 TCPU     3157.20
 TTTTTTTTTTTTTTTTTTTTTTTTTTTTTT MONMO3      TELAPSE     3225.77 TCPU     3198.92
 NUMERICALLY INTEGRATED DENSITY     67.9998855942     64.9998647148
 TTTTTTTTTTTTTTTTTTTTTTTTTTTTTT NUMDFT      TELAPSE     3231.49 TCPU     3204.63
 CYC  10 ETOT(AU) -9.209196364009E+02 DETOT -8.88E-05 tst  1.51E-05 PX  1.05E-02
 CYCLE 10 WAVE FUNCTION SAVED IN FORTRAN UNIT 79
 TTTTTTTTTTTTTTTTTTTTTTTTTTTTTT DIIS        TELAPSE     3233.10 TCPU     3205.45
 DIIS TEST: 0.13143E-02 AT SCF   CYCLE  10 - DIIS ACTIVE - HISTORY:    10 CYCLES
 TTTTTTTTTTTTTTTTTTTTTTTTTTTTTT FDIK        TELAPSE     3234.97 TCPU     3207.30
 SPIN LOCKING: NO ENERGY GAP COMPUTED
 TTTTTTTTTTTTTTTTTTTTTTTTTTTTTT PDIG        TELAPSE     3235.52 TCPU     3207.84
 CHARGE NORMALIZATION FACTOR   1.00000000
 TOTAL ATOMIC CHARGES:
   0.1834250   0.1834252   0.1834253   0.1834250  18.1459103  18.1211025
  18.1126408  18.0964140   7.4782509   7.4693684   7.4782512   7.4693687
   7.4782252   7.4782247   7.4692716   7.4692712
 SUMMED SPIN DENSITY           3.00000000
 TOTAL ATOMIC SPINS  :
  -0.0026443  -0.0026440  -0.0026441  -0.0026443   0.3830119   0.5085384
   0.5148503   0.5941797   0.1220289   0.1304571   0.1220290   0.1304571
   0.1219299   0.1219293   0.1305825   0.1305825
 TTTTTTTTTTTTTTTTTTTTTTTTTTTTTT MOQGAD      TELAPSE     3235.54 TCPU     3207.86
 TTTTTTTTTTTTTTTTTTTTTTTTTTTTTT SHELLXN     TELAPSE     3479.26 TCPU     3450.91
 TTTTTTTTTTTTTTTTTTTTTTTTTTTTTT MONMO3      TELAPSE     3520.32 TCPU     3491.95
 NUMERICALLY INTEGRATED DENSITY     67.9998857172     64.9998646879
 TTTTTTTTTTTTTTTTTTTTTTTTTTTTTT NUMDFT      TELAPSE     3525.92 TCPU     3497.54
 CYC  11 ETOT(AU) -9.209196757996E+02 DETOT -3.94E-05 tst  7.44E-06 PX  7.12E-03
 CYCLE 11 WAVE FUNCTION SAVED IN FORTRAN UNIT 79
 TTTTTTTTTTTTTTTTTTTTTTTTTTTTTT DIIS        TELAPSE     3527.73 TCPU     3498.36
 DIIS TEST: 0.97747E-03 AT SCF   CYCLE  11 - DIIS ACTIVE - HISTORY:    11 CYCLES
 TTTTTTTTTTTTTTTTTTTTTTTTTTTTTT FDIK        TELAPSE     3529.55 TCPU     3500.17
 SPIN LOCKING: NO ENERGY GAP COMPUTED
 TTTTTTTTTTTTTTTTTTTTTTTTTTTTTT PDIG        TELAPSE     3529.79 TCPU     3500.41
 CHARGE NORMALIZATION FACTOR   1.00000000
 TOTAL ATOMIC CHARGES:
   0.1834261   0.1834268   0.1834269   0.1834261  18.1478916  18.1159448
  18.1171219  18.0950959   7.4786354   7.4689181   7.4786358   7.4689184
   7.4786394   7.4786391   7.4689272   7.4689265
 SUMMED SPIN DENSITY           3.00000000
 TOTAL ATOMIC SPINS  :
  -0.0026551  -0.0026553  -0.0026553  -0.0026551   0.3858059   0.5111924
   0.5103565   0.5932470   0.1219974   0.1305044   0.1219977   0.1305043
   0.1220133   0.1220130   0.1304945   0.1304944
 TTTTTTTTTTTTTTTTTTTTTTTTTTTTTT MOQGAD      TELAPSE     3529.81 TCPU     3500.43
 TTTTTTTTTTTTTTTTTTTTTTTTTTTTTT SHELLXN     TELAPSE     3774.80 TCPU     3743.81
 TTTTTTTTTTTTTTTTTTTTTTTTTTTTTT MONMO3      TELAPSE     3815.28 TCPU     3783.88
 NUMERICALLY INTEGRATED DENSITY     67.9998858820     64.9998646668
 TTTTTTTTTTTTTTTTTTTTTTTTTTTTTT NUMDFT      TELAPSE     3820.79 TCPU     3789.39
 CYC  12 ETOT(AU) -9.209197450550E+02 DETOT -6.93E-05 tst  5.31E-06 PX  4.88E-03
 CYCLE 12 WAVE FUNCTION SAVED IN FORTRAN UNIT 79
 TTTTTTTTTTTTTTTTTTTTTTTTTTTTTT DIIS        TELAPSE     3822.24 TCPU     3790.01
 DIIS TEST: 0.32972E-03 AT SCF   CYCLE  12 - DIIS ACTIVE - HISTORY:    12 CYCLES
 TTTTTTTTTTTTTTTTTTTTTTTTTTTTTT FDIK        TELAPSE     3824.09 TCPU     3791.85
 SPIN LOCKING: NO ENERGY GAP COMPUTED
 TTTTTTTTTTTTTTTTTTTTTTTTTTTTTT PDIG        TELAPSE     3824.34 TCPU     3792.09
 CHARGE NORMALIZATION FACTOR   1.00000000
 TOTAL ATOMIC CHARGES:
   0.1833905   0.1833905   0.1833906   0.1833904  18.1491179  18.1161538
  18.1161250  18.0941882   7.4782326   7.4694802   7.4782330   7.4694806
   7.4782417   7.4782416   7.4694721   7.4694714
 SUMMED SPIN DENSITY           3.00000000
 TOTAL ATOMIC SPINS  :
  -0.0026613  -0.0026614  -0.0026613  -0.0026612   0.3887172   0.5099228
   0.5100020   0.5918325   0.1221910   0.1303496   0.1221913   0.1303496
   0.1221917   0.1221919   0.1303528   0.1303527
 TTTTTTTTTTTTTTTTTTTTTTTTTTTTTT MOQGAD      TELAPSE     3824.36 TCPU     3792.12
 TTTTTTTTTTTTTTTTTTTTTTTTTTTTTT SHELLXN     TELAPSE     4068.93 TCPU     4035.25
 TTTTTTTTTTTTTTTTTTTTTTTTTTTTTT MONMO3      TELAPSE     4109.33 TCPU     4075.52
 NUMERICALLY INTEGRATED DENSITY     67.9998860055     64.9998647072
 TTTTTTTTTTTTTTTTTTTTTTTTTTTTTT NUMDFT      TELAPSE     4114.98 TCPU     4081.17
 CYC  13 ETOT(AU) -9.209197660919E+02 DETOT -2.10E-05 tst  1.96E-06 PX  4.20E-03
 CYCLE 13 WAVE FUNCTION SAVED IN FORTRAN UNIT 79
 TTTTTTTTTTTTTTTTTTTTTTTTTTTTTT DIIS        TELAPSE     4116.43 TCPU     4082.32
 DIIS TEST: 0.12915E-03 AT SCF   CYCLE  13 - DIIS ACTIVE - HISTORY:    13 CYCLES
 TTTTTTTTTTTTTTTTTTTTTTTTTTTTTT FDIK        TELAPSE     4118.25 TCPU     4084.13
 SPIN LOCKING: NO ENERGY GAP COMPUTED
 TTTTTTTTTTTTTTTTTTTTTTTTTTTTTT PDIG        TELAPSE     4118.49 TCPU     4084.38
 CHARGE NORMALIZATION FACTOR   1.00000000
 TOTAL ATOMIC CHARGES:
   0.1833731   0.1833732   0.1833733   0.1833730  18.1503513  18.1159694
  18.1159897  18.0934023   7.4782296   7.4694679   7.4782300   7.4694683
   7.4782225   7.4782224   7.4694773   7.4694766
 SUMMED SPIN DENSITY           3.00000000
 TOTAL ATOMIC SPINS  :
  -0.0026669  -0.0026669  -0.0026669  -0.0026669   0.3918004   0.5089408
   0.5089891   0.5900869   0.1223404   0.1303698   0.1223408   0.1303698
   0.1223465   0.1223467   0.1303682   0.1303681
 TTTTTTTTTTTTTTTTTTTTTTTTTTTTTT MOQGAD      TELAPSE     4118.51 TCPU     4084.40
 TTTTTTTTTTTTTTTTTTTTTTTTTTTTTT SHELLXN     TELAPSE     4363.80 TCPU     4327.82
 TTTTTTTTTTTTTTTTTTTTTTTTTTTTTT MONMO3      TELAPSE     4404.75 TCPU     4368.75
 NUMERICALLY INTEGRATED DENSITY     67.9998860804     64.9998647462
 TTTTTTTTTTTTTTTTTTTTTTTTTTTTTT NUMDFT      TELAPSE     4410.35 TCPU     4374.34
 CYC  14 ETOT(AU) -9.209197791287E+02 DETOT -1.30E-05 tst  1.72E-06 PX  4.40E-03
 CYCLE 14 WAVE FUNCTION SAVED IN FORTRAN UNIT 79
 TTTTTTTTTTTTTTTTTTTTTTTTTTTTTT DIIS        TELAPSE     4411.77 TCPU     4375.32
 DIIS TEST: 0.13892E-04 AT SCF   CYCLE  14 - DIIS ACTIVE - HISTORY:    14 CYCLES
 TTTTTTTTTTTTTTTTTTTTTTTTTTTTTT FDIK        TELAPSE     4413.74 TCPU     4377.26
 SPIN LOCKING: NO ENERGY GAP COMPUTED
 TTTTTTTTTTTTTTTTTTTTTTTTTTTTTT PDIG        TELAPSE     4413.99 TCPU     4377.50
 CHARGE NORMALIZATION FACTOR   1.00000000
 TOTAL ATOMIC CHARGES:
   0.1833666   0.1833666   0.1833667   0.1833665  18.1507153  18.1159536
  18.1159080  18.0931830   7.4782159   7.4694752   7.4782161   7.4694753
   7.4782400   7.4782398   7.4694560   7.4694555
 SUMMED SPIN DENSITY           3.00000000
 TOTAL ATOMIC SPINS  :
  -0.0026683  -0.0026683  -0.0026683  -0.0026683   0.3927431   0.5086020
   0.5086753   0.5893586   0.1224069   0.1304166   0.1224070   0.1304166
   0.1224023   0.1224024   0.1304211   0.1304213
 TTTTTTTTTTTTTTTTTTTTTTTTTTTTTT MOQGAD      TELAPSE     4414.01 TCPU     4377.52
 TTTTTTTTTTTTTTTTTTTTTTTTTTTTTT SHELLXN     TELAPSE     4660.05 TCPU     4620.62
 TTTTTTTTTTTTTTTTTTTTTTTTTTTTTT MONMO3      TELAPSE     4699.10 TCPU     4659.67
 NUMERICALLY INTEGRATED DENSITY     67.9998860778     64.9998647735
 TTTTTTTTTTTTTTTTTTTTTTTTTTTTTT NUMDFT      TELAPSE     4705.29 TCPU     4665.79
 CYC  15 ETOT(AU) -9.209197803791E+02 DETOT -1.25E-06 tst  1.80E-07 PX  1.30E-03
 CYCLE 15 WAVE FUNCTION SAVED IN FORTRAN UNIT 79
 TTTTTTTTTTTTTTTTTTTTTTTTTTTTTT DIIS        TELAPSE     4706.86 TCPU     4666.36
 DIIS TEST: 0.11976E-05 AT SCF   CYCLE  15 - DIIS ACTIVE - HISTORY:    15 CYCLES
 TTTTTTTTTTTTTTTTTTTTTTTTTTTTTT FDIK        TELAPSE     4708.81 TCPU     4668.25
 SPIN LOCKING: NO ENERGY GAP COMPUTED
 TTTTTTTTTTTTTTTTTTTTTTTTTTTTTT PDIG        TELAPSE     4709.05 TCPU     4668.49
 CHARGE NORMALIZATION FACTOR   1.00000000
 TOTAL ATOMIC CHARGES:
   0.1833626   0.1833625   0.1833626   0.1833625  18.1508181  18.1159161
  18.1159577  18.0930511   7.4782639   7.4694395   7.4782641   7.4694397
   7.4782221   7.4782218   7.4694781   7.4694777
 SUMMED SPIN DENSITY           3.00000000
 TOTAL ATOMIC SPINS  :
  -0.0026692  -0.0026692  -0.0026692  -0.0026692   0.3929710   0.5085582
   0.5085628   0.5890562   0.1224159   0.1304658   0.1224159   0.1304658
   0.1224262   0.1224263   0.1304563   0.1304564
 TTTTTTTTTTTTTTTTTTTTTTTTTTTTTT MOQGAD      TELAPSE     4709.07 TCPU     4668.51
 TTTTTTTTTTTTTTTTTTTTTTTTTTTTTT SHELLXN     TELAPSE     4953.88 TCPU     4911.95
 TTTTTTTTTTTTTTTTTTTTTTTTTTTTTT MONMO3      TELAPSE     4994.12 TCPU     4952.17
 NUMERICALLY INTEGRATED DENSITY     67.9998860657     64.9998647933
 TTTTTTTTTTTTTTTTTTTTTTTTTTTTTT NUMDFT      TELAPSE     4999.75 TCPU     4957.78
 CYC  16 ETOT(AU) -9.209197804888E+02 DETOT -1.10E-07 tst  2.34E-08 PX  3.20E-04
 CYCLE 16 WAVE FUNCTION SAVED IN FORTRAN UNIT 79
 TTTTTTTTTTTTTTTTTTTTTTTTTTTTTT DIIS        TELAPSE     5001.44 TCPU     4958.68
 DIIS TEST: 0.20086E-06 AT SCF   CYCLE  16 - DIIS ACTIVE - HISTORY:    16 CYCLES
 TTTTTTTTTTTTTTTTTTTTTTTTTTTTTT FDIK        TELAPSE     5003.91 TCPU     4961.12
 SPIN LOCKING: NO ENERGY GAP COMPUTED
 TTTTTTTTTTTTTTTTTTTTTTTTTTTTTT PDIG        TELAPSE     5004.29 TCPU     4961.50
 CHARGE NORMALIZATION FACTOR   1.00000000
 TOTAL ATOMIC CHARGES:
   0.1833611   0.1833610   0.1833611   0.1833610  18.1508019  18.1159621
  18.1159127  18.0930599   7.4782120   7.4694885   7.4782122   7.4694887
   7.4782755   7.4782753   7.4694336   7.4694333
 SUMMED SPIN DENSITY           3.00000000
 TOTAL ATOMIC SPINS  :
  -0.0026697  -0.0026697  -0.0026697  -0.0026697   0.3929571   0.5085365
   0.5086057   0.5890106   0.1224282   0.1304653   0.1224282   0.1304653
   0.1224136   0.1224136   0.1304773   0.1304774
 TTTTTTTTTTTTTTTTTTTTTTTTTTTTTT MOQGAD      TELAPSE     5004.32 TCPU     4961.53
 TTTTTTTTTTTTTTTTTTTTTTTTTTTTTT SHELLXN     TELAPSE     5249.46 TCPU     5205.07
 TTTTTTTTTTTTTTTTTTTTTTTTTTTTTT MONMO3      TELAPSE     5290.53 TCPU     5246.08
 NUMERICALLY INTEGRATED DENSITY     67.9998860619     64.9998647991
 TTTTTTTTTTTTTTTTTTTTTTTTTTTTTT NUMDFT      TELAPSE     5296.11 TCPU     5251.65
 CYC  17 ETOT(AU) -9.209197804828E+02 DETOT  5.96E-09 tst  3.15E-09 PX  6.58E-05
 CYCLE 17 WAVE FUNCTION SAVED IN FORTRAN UNIT 79
 TTTTTTTTTTTTTTTTTTTTTTTTTTTTTT DIIS        TELAPSE     5297.44 TCPU     5252.43
 DIIS TEST: 0.16434E-06 AT SCF   CYCLE  17 - DIIS ACTIVE - HISTORY:    17 CYCLES
 TTTTTTTTTTTTTTTTTTTTTTTTTTTTTT FDIK        TELAPSE     5299.29 TCPU     5254.24
 SPIN LOCKING: NO ENERGY GAP COMPUTED
 TTTTTTTTTTTTTTTTTTTTTTTTTTTTTT PDIG        TELAPSE     5299.54 TCPU     5254.48
 CHARGE NORMALIZATION FACTOR   1.00000000
 TOTAL ATOMIC CHARGES:
   0.1833606   0.1833604   0.1833606   0.1833605  18.1507993  18.1159380
  18.1159486  18.0930471   7.4782496   7.4694569   7.4782498   7.4694571
   7.4782369   7.4782367   7.4694691   7.4694688
 SUMMED SPIN DENSITY           3.00000000
 TOTAL ATOMIC SPINS  :
  -0.0026700  -0.0026700  -0.0026700  -0.0026700   0.3929758   0.5085644
   0.5085752   0.5889645   0.1224201   0.1304797   0.1224201   0.1304797
   0.1224232   0.1224233   0.1304769   0.1304769
 TTTTTTTTTTTTTTTTTTTTTTTTTTTTTT MOQGAD      TELAPSE     5299.56 TCPU     5254.50
 TTTTTTTTTTTTTTTTTTTTTTTTTTTTTT SHELLXN     TELAPSE     5544.15 TCPU     5497.73
 TTTTTTTTTTTTTTTTTTTTTTTTTTTTTT MONMO3      TELAPSE     5585.56 TCPU     5539.03
 NUMERICALLY INTEGRATED DENSITY     67.9998860598     64.9998648026
 TTTTTTTTTTTTTTTTTTTTTTTTTTTTTT NUMDFT      TELAPSE     5591.15 TCPU     5544.62
 CYC  18 ETOT(AU) -9.209197804934E+02 DETOT -1.06E-08 tst  1.46E-09 PX  4.89E-05
 CYCLE 18 WAVE FUNCTION SAVED IN FORTRAN UNIT 79
 TTTTTTTTTTTTTTTTTTTTTTTTTTTTTT DIIS        TELAPSE     5592.64 TCPU     5545.78
 DIIS TEST: 0.32782E-07 AT SCF   CYCLE  18 - DIIS ACTIVE - HISTORY:    18 CYCLES
 TTTTTTTTTTTTTTTTTTTTTTTTTTTTTT FDIK        TELAPSE     5594.63 TCPU     5547.76
 SPIN LOCKING: NO ENERGY GAP COMPUTED
 TTTTTTTTTTTTTTTTTTTTTTTTTTTTTT PDIG        TELAPSE     5594.88 TCPU     5548.01
 CHARGE NORMALIZATION FACTOR   1.00000000
 TOTAL ATOMIC CHARGES:
   0.1833605   0.1833603   0.1833605   0.1833604  18.1507931  18.1159477
  18.1159570  18.0930311   7.4782420   7.4694644   7.4782422   7.4694645
   7.4782445   7.4782443   7.4694639   7.4694636
 SUMMED SPIN DENSITY           3.00000000
 TOTAL ATOMIC SPINS  :
  -0.0026702  -0.0026702  -0.0026702  -0.0026702   0.3929882   0.5085652
   0.5085797   0.5889308   0.1224210   0.1304833   0.1224210   0.1304833
   0.1224210   0.1224211   0.1304830   0.1304830
 TTTTTTTTTTTTTTTTTTTTTTTTTTTTTT MOQGAD      TELAPSE     5594.90 TCPU     5548.03
 TTTTTTTTTTTTTTTTTTTTTTTTTTTTTT SHELLXN     TELAPSE     5840.08 TCPU     5791.44
 TTTTTTTTTTTTTTTTTTTTTTTTTTTTTT MONMO3      TELAPSE     5880.40 TCPU     5831.45
 NUMERICALLY INTEGRATED DENSITY     67.9998860585     64.9998648045
 TTTTTTTTTTTTTTTTTTTTTTTTTTTTTT NUMDFT      TELAPSE     5885.98 TCPU     5837.00
 CYC  19 ETOT(AU) -9.209197804918E+02 DETOT  1.59E-09 tst  3.19E-10 PX  3.57E-05
 CYCLE 19 WAVE FUNCTION SAVED IN FORTRAN UNIT 79
 TTTTTTTTTTTTTTTTTTTTTTTTTTTTTT DIIS        TELAPSE     5887.41 TCPU     5838.01
 DIIS TEST: 0.13232E-07 AT SCF   CYCLE  19 - DIIS ACTIVE - HISTORY:    19 CYCLES
 TTTTTTTTTTTTTTTTTTTTTTTTTTTTTT FDIK        TELAPSE     5889.35 TCPU     5839.93
 SPIN LOCKING: NO ENERGY GAP COMPUTED
 TTTTTTTTTTTTTTTTTTTTTTTTTTTTTT PDIG        TELAPSE     5889.60 TCPU     5840.18
 CHARGE NORMALIZATION FACTOR   1.00000000
 TOTAL ATOMIC CHARGES:
   0.1833603   0.1833602   0.1833603   0.1833602  18.1507980  18.1159490
  18.1159485  18.0930316   7.4782432   7.4694646   7.4782434   7.4694648
   7.4782433   7.4782430   7.4694649   7.4694645
 SUMMED SPIN DENSITY           3.00000000
 TOTAL ATOMIC SPINS  :
  -0.0026704  -0.0026704  -0.0026704  -0.0026704   0.3930033   0.5085672
   0.5085795   0.5889098   0.1224206   0.1304848   0.1224206   0.1304848
   0.1224206   0.1224207   0.1304847   0.1304848
 TTTTTTTTTTTTTTTTTTTTTTTTTTTTTT MOQGAD      TELAPSE     5889.62 TCPU     5840.20
 TTTTTTTTTTTTTTTTTTTTTTTTTTTTTT SHELLXN     TELAPSE     6134.95 TCPU     6084.09
 TTTTTTTTTTTTTTTTTTTTTTTTTTTTTT MONMO3      TELAPSE     6175.11 TCPU     6123.94
 NUMERICALLY INTEGRATED DENSITY     67.9998860587     64.9998648055
 TTTTTTTTTTTTTTTTTTTTTTTTTTTTTT NUMDFT      TELAPSE     6180.68 TCPU     6129.44
 CYC  20 ETOT(AU) -9.209197804903E+02 DETOT  1.47E-09 tst  1.57E-10 PX  2.42E-05
 CYCLE 20 WAVE FUNCTION SAVED IN FORTRAN UNIT 79
 TTTTTTTTTTTTTTTTTTTTTTTTTTTTTT DIIS        TELAPSE     6182.14 TCPU     6130.48
 DIIS TEST: 0.52284E-08 AT SCF   CYCLE  20 - DIIS ACTIVE - HISTORY:    20 CYCLES
 TTTTTTTTTTTTTTTTTTTTTTTTTTTTTT FDIK        TELAPSE     6184.02 TCPU     6132.34
 SPIN LOCKING: NO ENERGY GAP COMPUTED
 TTTTTTTTTTTTTTTTTTTTTTTTTTTTTT PDIG        TELAPSE     6184.26 TCPU     6132.58
 CHARGE NORMALIZATION FACTOR   1.00000000
 TOTAL ATOMIC CHARGES:
   0.1833603   0.1833602   0.1833603   0.1833602  18.1507994  18.1159500
  18.1159530  18.0930234   7.4782427   7.4694646   7.4782429   7.4694648
   7.4782438   7.4782435   7.4694657   7.4694653
 SUMMED SPIN DENSITY           3.00000000
 TOTAL ATOMIC SPINS  :
  -0.0026705  -0.0026705  -0.0026705  -0.0026705   0.3930149   0.5085691
   0.5085780   0.5888961   0.1224202   0.1304859   0.1224202   0.1304859
   0.1224201   0.1224203   0.1304856   0.1304857
 TTTTTTTTTTTTTTTTTTTTTTTTTTTTTT MOQGAD      TELAPSE     6184.28 TCPU     6132.60
 TTTTTTTTTTTTTTTTTTTTTTTTTTTTTT SHELLXN     TELAPSE     6429.16 TCPU     6375.75
 TTTTTTTTTTTTTTTTTTTTTTTTTTTTTT MONMO3      TELAPSE     6471.02 TCPU     6417.60
 NUMERICALLY INTEGRATED DENSITY     67.9998860589     64.9998648059
 TTTTTTTTTTTTTTTTTTTTTTTTTTTTTT NUMDFT      TELAPSE     6476.82 TCPU     6423.39
 CYC  21 ETOT(AU) -9.209197804896E+02 DETOT  7.38E-10 tst  8.25E-11 PX  1.57E-05
 CYCLE 21 WAVE FUNCTION SAVED IN FORTRAN UNIT 79
 TTTTTTTTTTTTTTTTTTTTTTTTTTTTTT DIIS        TELAPSE     6478.36 TCPU     6424.21
 DIIS TEST: 0.17424E-08 AT SCF   CYCLE  21 - DIIS ACTIVE - HISTORY:    21 CYCLES
 TTTTTTTTTTTTTTTTTTTTTTTTTTTTTT FDIK        TELAPSE     6480.27 TCPU     6426.10
 SPIN LOCKING: NO ENERGY GAP COMPUTED
 TTTTTTTTTTTTTTTTTTTTTTTTTTTTTT PDIG        TELAPSE     6480.52 TCPU     6426.34
 CHARGE NORMALIZATION FACTOR   1.00000000
 TOTAL ATOMIC CHARGES:
   0.1833602   0.1833601   0.1833603   0.1833601  18.1508002  18.1159512
  18.1159527  18.0930205   7.4782435   7.4694657   7.4782437   7.4694659
   7.4782431   7.4782426   7.4694652   7.4694648
 SUMMED SPIN DENSITY           3.00000000
 TOTAL ATOMIC SPINS  :
  -0.0026705  -0.0026705  -0.0026705  -0.0026705   0.3930236   0.5085712
   0.5085775   0.5888854   0.1224196   0.1304864   0.1224197   0.1304864
   0.1224196   0.1224200   0.1304863   0.1304865
 TTTTTTTTTTTTTTTTTTTTTTTTTTTTTT MOQGAD      TELAPSE     6480.54 TCPU     6426.36
 TTTTTTTTTTTTTTTTTTTTTTTTTTTTTT SHELLXN     TELAPSE     6725.05 TCPU     6669.59
 TTTTTTTTTTTTTTTTTTTTTTTTTTTTTT MONMO3      TELAPSE     6763.97 TCPU     6708.14
 NUMERICALLY INTEGRATED DENSITY     67.9998860591     64.9998648062
 TTTTTTTTTTTTTTTTTTTTTTTTTTTTTT NUMDFT      TELAPSE     6769.52 TCPU     6713.68
 CYC  22 ETOT(AU) -9.209197804887E+02 DETOT  8.52E-10 tst  5.33E-11 PX  1.24E-05
 CYCLE 22 WAVE FUNCTION SAVED IN FORTRAN UNIT 79
 TTTTTTTTTTTTTTTTTTTTTTTTTTTTTT DIIS        TELAPSE     6770.91 TCPU     6714.31
 DIIS TEST: 0.50476E-09 AT SCF   CYCLE  22 - DIIS ACTIVE - HISTORY:    22 CYCLES
 TTTTTTTTTTTTTTTTTTTTTTTTTTTTTT FDIK        TELAPSE     6772.83 TCPU     6716.22
 SPIN LOCKING: NO ENERGY GAP COMPUTED
 TTTTTTTTTTTTTTTTTTTTTTTTTTTTTT PDIG        TELAPSE     6773.07 TCPU     6716.47
 CHARGE NORMALIZATION FACTOR   1.00000000
 TOTAL ATOMIC CHARGES:
   0.1833602   0.1833601   0.1833602   0.1833601  18.1508005  18.1159515
  18.1159526  18.0930196   7.4782428   7.4694649   7.4782429   7.4694651
   7.4782439   7.4782432   7.4694663   7.4694658
 SUMMED SPIN DENSITY           3.00000000
 TOTAL ATOMIC SPINS  :
  -0.0026705  -0.0026705  -0.0026705  -0.0026705   0.3930262   0.5085719
   0.5085772   0.5888824   0.1224196   0.1304866   0.1224196   0.1304867
   0.1224192   0.1224199   0.1304862   0.1304866
 TTTTTTTTTTTTTTTTTTTTTTTTTTTTTT MOQGAD      TELAPSE     6773.10 TCPU     6716.49
 TTTTTTTTTTTTTTTTTTTTTTTTTTTTTT SHELLXN     TELAPSE     7017.47 TCPU     6959.83
 TTTTTTTTTTTTTTTTTTTTTTTTTTTTTT MONMO3      TELAPSE     7058.92 TCPU     7001.21
 NUMERICALLY INTEGRATED DENSITY     67.9998860592     64.9998648063
 TTTTTTTTTTTTTTTTTTTTTTTTTTTTTT NUMDFT      TELAPSE     7064.53 TCPU     7006.82
 CYC  23 ETOT(AU) -9.209197804885E+02 DETOT  2.06E-10 tst  4.93E-12 PX  3.53E-06
 CYCLE 23 WAVE FUNCTION SAVED IN FORTRAN UNIT 79
 TTTTTTTTTTTTTTTTTTTTTTTTTTTTTT DIIS        TELAPSE     7066.09 TCPU     7008.01
 DIIS TEST: 0.24060E-09 AT SCF   CYCLE  23 - DIIS ACTIVE - HISTORY:    23 CYCLES
 TTTTTTTTTTTTTTTTTTTTTTTTTTTTTT FDIK        TELAPSE     7067.99 TCPU     7009.89
 SPIN LOCKING: NO ENERGY GAP COMPUTED
 TTTTTTTTTTTTTTTTTTTTTTTTTTTTTT PDIG        TELAPSE     7068.24 TCPU     7010.14
 CHARGE NORMALIZATION FACTOR   1.00000000
 TOTAL ATOMIC CHARGES:
   0.1833602   0.1833601   0.1833602   0.1833601  18.1508015  18.1159519
  18.1159527  18.0930178   7.4782432   7.4694654   7.4782434   7.4694656
   7.4782438   7.4782427   7.4694661   7.4694654
 SUMMED SPIN DENSITY           3.00000000
 TOTAL ATOMIC SPINS  :
  -0.0026705  -0.0026705  -0.0026705  -0.0026705   0.3930305   0.5085731
   0.5085763   0.5888779   0.1224193   0.1304867   0.1224194   0.1304868
   0.1224188   0.1224201   0.1304863   0.1304870
 TTTTTTTTTTTTTTTTTTTTTTTTTTTTTT MOQGAD      TELAPSE     7068.26 TCPU     7010.15
 TTTTTTTTTTTTTTTTTTTTTTTTTTTTTT SHELLXN     TELAPSE     7312.49 TCPU     7253.39
 TTTTTTTTTTTTTTTTTTTTTTTTTTTTTT MONMO3      TELAPSE     7354.40 TCPU     7294.39
 NUMERICALLY INTEGRATED DENSITY     67.9998860594     64.9998648064
 TTTTTTTTTTTTTTTTTTTTTTTTTTTTTT NUMDFT      TELAPSE     7360.00 TCPU     7299.98
 CYC  24 ETOT(AU) -9.209197804883E+02 DETOT  2.52E-10 tst  1.26E-11 PX  5.43E-06
 CYCLE 24 WAVE FUNCTION SAVED IN FORTRAN UNIT 79
 TTTTTTTTTTTTTTTTTTTTTTTTTTTTTT DIIS        TELAPSE     7361.42 TCPU     7300.88
 DIIS TEST: 0.47568E-10 AT SCF   CYCLE  24 - DIIS ACTIVE - HISTORY:    24 CYCLES
 TTTTTTTTTTTTTTTTTTTTTTTTTTTTTT FDIK        TELAPSE     7362.97 TCPU     7302.42
 SPIN LOCKING: NO ENERGY GAP COMPUTED
 TTTTTTTTTTTTTTTTTTTTTTTTTTTTTT PDIG        TELAPSE     7363.22 TCPU     7302.66
 CHARGE NORMALIZATION FACTOR   1.00000000
 TOTAL ATOMIC CHARGES:
   0.1833602   0.1833601   0.1833602   0.1833601  18.1508015  18.1159521
  18.1159526  18.0930177   7.4782433   7.4694653   7.4782433   7.4694655
   7.4782442   7.4782424   7.4694663   7.4694653
 SUMMED SPIN DENSITY           3.00000000
 TOTAL ATOMIC SPINS  :
  -0.0026705  -0.0026705  -0.0026705  -0.0026705   0.3930308   0.5085735
   0.5085761   0.5888776   0.1224192   0.1304867   0.1224194   0.1304868
   0.1224183   0.1224203   0.1304862   0.1304872
 TTTTTTTTTTTTTTTTTTTTTTTTTTTTTT MOQGAD      TELAPSE     7363.24 TCPU     7302.68
 TTTTTTTTTTTTTTTTTTTTTTTTTTTTTT SHELLXN     TELAPSE     7606.91 TCPU     7545.90
 TTTTTTTTTTTTTTTTTTTTTTTTTTTTTT MONMO3      TELAPSE     7648.85 TCPU     7587.84
 NUMERICALLY INTEGRATED DENSITY     67.9998860594     64.9998648064
 TTTTTTTTTTTTTTTTTTTTTTTTTTTTTT NUMDFT      TELAPSE     7654.38 TCPU     7593.37
 CYC  25 ETOT(AU) -9.209197804882E+02 DETOT  4.41E-11 tst  1.34E-12 PX  2.03E-06
 CYCLE 25 WAVE FUNCTION SAVED IN FORTRAN UNIT 79
 TTTTTTTTTTTTTTTTTTTTTTTTTTTTTT DIIS        TELAPSE     7655.80 TCPU     7594.68
 DIIS TEST: 0.31005E-10 AT SCF   CYCLE  25 - DIIS ACTIVE - HISTORY:    24 CYCLES
 TTTTTTTTTTTTTTTTTTTTTTTTTTTTTT FDIK        TELAPSE     7657.54 TCPU     7596.41
 SPIN LOCKING: NO ENERGY GAP COMPUTED
 TTTTTTTTTTTTTTTTTTTTTTTTTTTTTT PDIG        TELAPSE     7657.79 TCPU     7596.66
 CHARGE NORMALIZATION FACTOR   1.00000000
 TOTAL ATOMIC CHARGES:
   0.1833602   0.1833601   0.1833602   0.1833601  18.1508016  18.1159522
  18.1159525  18.0930176   7.4782433   7.4694654   7.4782433   7.4694655
   7.4782445   7.4782421   7.4694664   7.4694651
 SUMMED SPIN DENSITY           3.00000000
 TOTAL ATOMIC SPINS  :
  -0.0026705  -0.0026705  -0.0026705  -0.0026705   0.3930311   0.5085738
   0.5085759   0.5888773   0.1224191   0.1304867   0.1224195   0.1304868
   0.1224177   0.1224210   0.1304859   0.1304874
 TTTTTTTTTTTTTTTTTTTTTTTTTTTTTT MOQGAD      TELAPSE     7657.81 TCPU     7596.68
 TTTTTTTTTTTTTTTTTTTTTTTTTTTTTT SHELLXN     TELAPSE     7903.30 TCPU     7839.86
 +++ ENERGIES IN A.U. +++
 ::: EXT EL-POLE                                  -4.7118161804145E+03
 ::: EXT EL-SPHEROPOLE                             2.3086325961734E+01
 ::: BIELET ZONE E-E                               5.1306955196746E+03
 ::: TOTAL E-E                                     4.4196566522178E+02
 ::: TOTAL E-N + N-E                              -1.4651095908197E+03
 ::: TOTAL N-N                                    -4.1541873518440E+02
 ::: KINETIC ENERGY                                5.9953912845450E+02
 ::: PSEUDO TOTAL   ENERGY                        -8.3902353232777E+02
 ::: VIRIAL COEFFICIENT                            8.3352521902449E-01
 TTTTTTTTTTTTTTTTTTTTTTTTTTTTTT MONMO3      TELAPSE     7942.96 TCPU     7879.53
 NUMERICALLY INTEGRATED DENSITY     67.9998860594     64.9998648064
 TTTTTTTTTTTTTTTTTTTTTTTTTTTTTT NUMDFT      TELAPSE     7948.77 TCPU     7885.33
 CYC  26 ETOT(AU) -9.209197804882E+02 DETOT  1.58E-11 tst  3.59E-12 PX  2.03E-06

 == SCF ENDED - CONVERGENCE ON ENERGY      E(AU) -9.2091978048822E+02 CYCLES  26


 ENERGY EXPRESSION=HARTREE+FOCK EXCH*0.25000+(PBE        EXCH)*0.75000+PBE        CORR

 FINITE TEMPERATURE DFT CALCULATION 
 TEMPERATURE      (T)    1.000000000000E-13 HARTREE 
 ENERGY           (E)   -9.209197804882E+02
 FREE ENERGY      (F)   -9.209197804882E+02
 ELECTRON ENTROPY (S)    0.000000000000E+00
 (E(T)+F(T))/2    (E0)  -9.209197804882E+02


 TOTAL ENERGY(DFT)(AU)( 26) -9.2091978048822E+02 DE 1.6E-11 tester 3.6E-12
 TTTTTTTTTTTTTTTTTTTTTTTTTTTTTT EDFT        TELAPSE     7948.78 TCPU     7885.35
 EIGENVECTORS IN FORTRAN UNIT  8
 TTTTTTTTTTTTTTTTTTTTTTTTTTTTTT END         TELAPSE     7951.12 TCPU     7887.67
 EEEEEEEEEE TERMINATION  DATE 23 01 2018 TIME 09:03:41.3
NODE    0 CPU TIME =      7887.667
NODE    1 CPU TIME =      7899.892
NODE    2 CPU TIME =      7901.311
NODE    3 CPU TIME =      7894.014
NODE    4 CPU TIME =      7899.459
NODE    5 CPU TIME =      7900.263
NODE    6 CPU TIME =      7891.516
NODE    7 CPU TIME =      7901.392
NODE    8 CPU TIME =      7887.147
NODE    9 CPU TIME =      7895.707
NODE   10 CPU TIME =      7891.170
NODE   11 CPU TIME =      7900.221
NODE   12 CPU TIME =      7886.649
NODE   13 CPU TIME =      7891.346
NODE   14 CPU TIME =      7892.632
NODE   15 CPU TIME =      7895.661
NODE   16 CPU TIME =      7884.218
NODE   17 CPU TIME =      7889.359
NODE   18 CPU TIME =      7888.368
NODE   19 CPU TIME =      7890.613
NODE   20 CPU TIME =      7887.860
NODE   21 CPU TIME =      7883.203
NODE   22 CPU TIME =      7888.528
NODE   23 CPU TIME =      7869.619
NODE   24 CPU TIME =      7884.137
NODE   25 CPU TIME =      7879.080
NODE   26 CPU TIME =      7885.113
NODE   27 CPU TIME =      7883.738
NODE   28 CPU TIME =      7893.025
NODE   29 CPU TIME =      7884.467
NODE   30 CPU TIME =      7883.588
NODE   31 CPU TIME =      7883.287
    TOTAL CPU TIME =    252474.250
