--------------------------------------------------------------------------
[[16060,1],2]: A high-performance Open MPI point-to-point messaging module
was unable to find any relevant network interfaces:

Module: OpenFabrics (openib)
  Host: golub222

Another transport will be used instead, although this may result in
lower performance.
--------------------------------------------------------------------------
 PROCESS            3  OF           20  WORKING
 PROCESS           16  OF           20  WORKING
 PROCESS            0  OF           20  WORKING
 PROCESS            1  OF           20  WORKING
 PROCESS            8  OF           20  WORKING
 PROCESS            6  OF           20  WORKING
 PROCESS           13  OF           20  WORKING
 PROCESS           19  OF           20  WORKING
 PROCESS           12  OF           20  WORKING
 PROCESS           10  OF           20  WORKING
 PROCESS           11  OF           20  WORKING
 PROCESS           17  OF           20  WORKING
 PROCESS            4  OF           20  WORKING
 PROCESS            7  OF           20  WORKING
 PROCESS           15  OF           20  WORKING
 PROCESS           14  OF           20  WORKING
 PROCESS           18  OF           20  WORKING
 PROCESS            5  OF           20  WORKING
 PROCESS            2  OF           20  WORKING
 PROCESS            9  OF           20  WORKING

         
 *******************************************************************************
 *                                                                             *
 *                               CRYSTAL17                                     *
 *                      public : 1.0.1 - Jun 21st, 2017                        *
 *                       HTTP://WWW.CRYSTAL.UNITO.IT                           *
 *                                                                             *
 *                              MAIN AUTHORS                                   *
 *                                                                             *
 *  R. DOVESI(1,11), V.R. SAUNDERS(2), C. ROETTI(1,11), R. ORLANDO(1,11),      *
 *  C.M. ZICOVICH-WILSON(1,3), F. PASCALE(4), B. CIVALLERI(1,11),              *
 *  K. DOLL(5), N.M. HARRISON(2,6), I.J. BUSH(7), Ph. D'ARCO(8),               *
 *  M. LLUNELL(9), M. CAUSA'(10), Y. NOEL(8), L. MASCHIO(1,11), A. ERBA(1,11)  *
 *  M. RE'RAT(14), S. CASASSA(1,11)                                            *
 *                                                                             *
 *        CONTRIBUTIONS TO THE CODE HAVE ALSO BEEN GIVEN BY                    *
 *                                                                             *
 *  M. FERRABONE(1,11), M. DE LA PIERRE(1,11), M. FERRERO(1,11),               *
 *  J. BAIMA(1,11), E. ALBANESE(1,11), M.F. PEINTINGER(12), R. BAST(13),       *
 *  B. KIRTMAN(15), V. LACIVITA(1,11), R. DEMICHELIS(1,16)                     *
 *  G. BRANDEBURG(17), S. SALUSTRO(1,11), G. SANSONE(1,11)                     *
 *  M.T. RUGGIERO(18)                                                          *
 *                                                                             *
 * (1) THEORETICAL CHEMISTRY GROUP - UNIVERSITA' DI TORINO - TORINO (ITALY)    *

 * (2) COMPUTATIONAL SCIENCE & ENGINEERING DEPARTMENT - STFC DARESBURY (UK)    *
 * (3) UNIVERSIDAD AUTONOMA DEL ESTADO DE MORELOS - CUERNAVACA (MEXICO)        *
 * (4) UNIVERSITE' DE LORRAINE - NANCY (FRANCE)                                *
 * (5) UNIVERSITAET STUTTGART- STUTTGART (GERMANY)                             *
 * (6) IMPERIAL COLLEGE - LONDON (UK)                                          *
 * (7) OXFORD E-RESEARCH CENTRE - OXFORD (UK)                                  *
 * (8) UPMC - SORBONNE UNIVERSITES - PARIS (FRANCE)                            *
 * (9) UNIVERSIDAD DE BARCELONA - BARCELONA (SPAIN)                            *
 *(10) UNIVERSITA' DI NAPOLI "FEDERICO II" - NAPOLI (ITALY)                    *
 *(11) NIS - NANOSTRUCTURED INTERFACES AND SURFACES - TORINO (ITALY)           *
 *(12) MPI FUER CHEMISCHE ENERGIEKONVERSION - MUELHEIM AN DER RUHR (GERMANY)   *
 *(13) UNIVERSITY OF TROMSO - TROMSO (NORWAY)                                  *
 *(14) UNIVERSITE' DE PAU ET DES PAYS DE L'ADOUR - PAU (FRANCE)                *
 *(15) UNIVERSITY OF CALIFORNIA SANTA BARBARA - SANTA BARBARA (USA)            *
 *(16) CURTIN UNIVERSITY - PERTH (AUSTRALIA)                                   *
 *(17) UNIVERSITY COLLEGE LONDON - LONDON (UK)                                 *
 *(18) CAMBRIDGE UNIVERSITY - CAMBRIDGE (UK)                                   *
 *                                                                             *
 *******************************************************************************
 EEEEEEEEEE STARTING  DATE 11 06 2018 TIME 08:23:47.6
 Generated by CrystalWriter                                                      

 CRYSTAL CALCULATION
 (INPUT ACCORDING TO THE INTERNATIONAL TABLES FOR X-RAY CRYSTALLOGRAPHY)
 CRYSTAL FAMILY                       :  TETRAGONAL  
 CRYSTAL CLASS  (GROTH - 1921)        :  DITETRAGONAL DIPYRAMIDAL             

 SPACE GROUP (CENTROSYMMETRIC)        :  P 4/M M M       

 LATTICE PARAMETERS  (ANGSTROMS AND DEGREES) - CONVENTIONAL CELL
        A           B           C        ALPHA        BETA       GAMMA
     3.92785     3.92785     3.43380    90.00000    90.00000    90.00000


 NUMBER OF IRREDUCIBLE ATOMS IN THE CONVENTIONAL CELL:    4

 INPUT COORDINATES

 ATOM AT. N.              COORDINATES
   1 229     5.000000000000E-01  5.000000000000E-01  0.000000000000E+00
   2 208     0.000000000000E+00  5.000000000000E-01  0.000000000000E+00
   3 208     5.000000000000E-01  0.000000000000E+00  0.000000000000E+00
   4 238     0.000000000000E+00  0.000000000000E+00  5.000000000000E-01

 *******************************************************************************

 << INFORMATION >>: FROM NOW ON, ALL COORDINATES REFER TO THE PRIMITIVE CELL

 *******************************************************************************

 LATTICE PARAMETERS  (ANGSTROMS AND DEGREES) - PRIMITIVE CELL
       A          B          C        ALPHA      BETA     GAMMA        VOLUME
    3.92785    3.92785    3.43380    90.00000  90.00000  90.00000     52.976686

 INPUT LIST - ATOM N.   3 NOT IRREDUCIBLE

 COORDINATES OF THE EQUIVALENT ATOMS (FRACTIONAL UNITS)

 N. ATOM EQUIV AT. N.          X                  Y                  Z

   1   1   1  229 CU   -5.00000000000E-01 -5.00000000000E-01  0.00000000000E+00

   2   2   1  208 O     0.00000000000E+00 -5.00000000000E-01  0.00000000000E+00
   3   2   2  208 O     5.00000000000E-01  0.00000000000E+00  0.00000000000E+00


 NUMBER OF SYMMETRY OPERATORS         :   16
 *******************************************************************************
 * GEOMETRY EDITING - INPUT COORDINATES ARE GIVEN IN ANGSTROM         
 *******************************************************************************

 GEOMETRY NOW FULLY CONSISTENT WITH THE GROUP

 NO SYMMOPS WITH FINITE TRANSLATIONAL COMPONENT

 *******************************************************************************
 * SUPERCELL OPTION
 *******************************************************************************

 INFORMATION **** GEXPAD **** SUPERCELL VOLUME NEGATIVE ? - SIGN OF EXPANSION MATRIX REVERSED

        EXPANSION MATRIX OF PRIMITIVE CELL
 E1    -2.000    -2.000     0.000
 E2     2.000    -2.000     0.000
 E3     0.000     0.000     1.000

 NUMBER OF ATOMS PER SUPERCELL    32

        DIRECT LATTICE VECTORS COMPONENTS (ANGSTROM)
 B1    -7.856    -7.856     0.000
 B2     7.856    -7.856     0.000
 B3     0.000     0.000     3.434

 LATTICE PARAMETERS  (ANGSTROM AND DEGREES)
       A          B          C         ALPHA     BETA     GAMMA        VOLUME
   11.10964   11.10964    3.43380    90.00000  90.00000  90.00000    423.813486


 **** ATOMS BELONGING TO THE SUPERCELL
 LABEL AT.NO.      COORDINATES (ANGSTROM AND FRACTIONAL)
     1   229     5.8918    -1.9639     0.0000    -0.2500     0.5000     0.0000
     2   229     5.8918     1.9639     0.0000    -0.5000     0.2500     0.0000
     3   229    -1.9639    -1.9639     0.0000     0.2500     0.0000     0.0000
     4   229    -1.9639     1.9639     0.0000     0.0000    -0.2500     0.0000
     5   229     1.9639     5.8918     0.0000    -0.5000    -0.2500     0.0000
     6   229     1.9639    -5.8918     0.0000     0.2500     0.5000     0.0000
     7   229     1.9639    -1.9639     0.0000     0.0000     0.2500     0.0000
     8   229     1.9639     1.9639     0.0000    -0.2500     0.0000     0.0000
     9   208    -0.0000     5.8918     0.0000    -0.3750    -0.3750     0.0000
    10   208    -0.0000    -5.8918     0.0000     0.3750     0.3750     0.0000
    11   208     0.0000    -1.9639     0.0000     0.1250     0.1250     0.0000
    12   208     0.0000     1.9639     0.0000    -0.1250    -0.1250     0.0000
    13   208    -3.9279    -1.9639     0.0000     0.3750    -0.1250     0.0000
    14   208    -3.9279     1.9639     0.0000     0.1250    -0.3750     0.0000
    15   208     3.9278    -1.9639     0.0000    -0.1250     0.3750     0.0000
    16   208     3.9278     1.9639     0.0000    -0.3750     0.1250     0.0000
    17   208     5.8918     0.0000     0.0000    -0.3750     0.3750     0.0000
    18   208    -1.9639    -3.9278     0.0000     0.3750     0.1250     0.0000
    19   208    -1.9639     0.0000     0.0000     0.1250    -0.1250     0.0000
    20   208    -1.9639     3.9278     0.0000    -0.1250    -0.3750     0.0000
    21   208    -5.8918     0.0000     0.0000     0.3750    -0.3750     0.0000
    22   208     1.9639    -3.9278     0.0000     0.1250     0.3750     0.0000
    23   208     1.9639     0.0000     0.0000    -0.1250     0.1250     0.0000
    24   208     1.9639     3.9278     0.0000    -0.3750    -0.1250     0.0000
    25   238     7.8557     0.0000     1.7169    -0.5000     0.5000     0.5000
    26   238     0.0000    -3.9278     1.7169     0.2500     0.2500     0.5000
    27   238     0.0000     0.0000     1.7169     0.0000     0.0000     0.5000
    28   238     0.0000     3.9278     1.7169    -0.2500    -0.2500     0.5000
    29   238    -3.9279     0.0000     1.7169     0.2500    -0.2500     0.5000
    30   238     3.9278    -3.9278     1.7169     0.0000     0.5000     0.5000
    31   238     3.9278     0.0000     1.7169    -0.2500     0.2500     0.5000
    32   238     3.9278     3.9278     1.7169    -0.5000     0.0000     0.5000

 **************************** SUPERCELL GENERATED ****************************
 *********************************************************************
                        ATOMIC SITE SYMMETRIES
 *********************************************************************


 ATOM   1 ATOMIC NUMBER 229 - NUMBER OF SYMMOPS WHICH DO NOT MOVE THE ATOM   4
 SEQUENCE NUMBERS OF THE SYMMOPS
    1    6   10   13
 NUMBER OF ATOMS EQUIVALENT BY SYMMETRY    3
 SEQUENCE NUMBERS OF THESE ATOMS
    6    2    5
 SEQUENCE NUMBERS OF THE CORRESPONDING SYMMOPS
    2    3    4


 ATOM   2 ATOMIC NUMBER 229 - NUMBER OF SYMMOPS WHICH DO NOT MOVE THE ATOM   4
 SEQUENCE NUMBERS OF THE SYMMOPS
    1    5   10   14
 NUMBER OF ATOMS EQUIVALENT BY SYMMETRY    3
 SEQUENCE NUMBERS OF THESE ATOMS
    5    1    6
 SEQUENCE NUMBERS OF THE CORRESPONDING SYMMOPS
    2    3    4


 ATOM   3 ATOMIC NUMBER 229 - NUMBER OF SYMMOPS WHICH DO NOT MOVE THE ATOM   4
 SEQUENCE NUMBERS OF THE SYMMOPS
    1    6   10   13
 NUMBER OF ATOMS EQUIVALENT BY SYMMETRY    3
 SEQUENCE NUMBERS OF THESE ATOMS
    8    4    7
 SEQUENCE NUMBERS OF THE CORRESPONDING SYMMOPS
    2    3    4


 ATOM   4 ATOMIC NUMBER 229 - NUMBER OF SYMMOPS WHICH DO NOT MOVE THE ATOM   4
 SEQUENCE NUMBERS OF THE SYMMOPS
    1    5   10   14
 NUMBER OF ATOMS EQUIVALENT BY SYMMETRY    3
 SEQUENCE NUMBERS OF THESE ATOMS
    7    3    8
 SEQUENCE NUMBERS OF THE CORRESPONDING SYMMOPS
    2    3    4


 ATOM   5 ATOMIC NUMBER 229 - NUMBER OF SYMMOPS WHICH DO NOT MOVE THE ATOM   4
 SEQUENCE NUMBERS OF THE SYMMOPS
    1    5   10   14
 NUMBER OF ATOMS EQUIVALENT BY SYMMETRY    3
 SEQUENCE NUMBERS OF THESE ATOMS
    2    6    1
 SEQUENCE NUMBERS OF THE CORRESPONDING SYMMOPS
    2    3    4


 ATOM   6 ATOMIC NUMBER 229 - NUMBER OF SYMMOPS WHICH DO NOT MOVE THE ATOM   4
 SEQUENCE NUMBERS OF THE SYMMOPS
    1    6   10   13
 NUMBER OF ATOMS EQUIVALENT BY SYMMETRY    3
 SEQUENCE NUMBERS OF THESE ATOMS
    1    5    2
 SEQUENCE NUMBERS OF THE CORRESPONDING SYMMOPS
    2    3    4


 ATOM   7 ATOMIC NUMBER 229 - NUMBER OF SYMMOPS WHICH DO NOT MOVE THE ATOM   4
 SEQUENCE NUMBERS OF THE SYMMOPS
    1    5   10   14
 NUMBER OF ATOMS EQUIVALENT BY SYMMETRY    3
 SEQUENCE NUMBERS OF THESE ATOMS
    4    8    3
 SEQUENCE NUMBERS OF THE CORRESPONDING SYMMOPS
    2    3    4


 ATOM   8 ATOMIC NUMBER 229 - NUMBER OF SYMMOPS WHICH DO NOT MOVE THE ATOM   4
 SEQUENCE NUMBERS OF THE SYMMOPS
    1    6   10   13
 NUMBER OF ATOMS EQUIVALENT BY SYMMETRY    3
 SEQUENCE NUMBERS OF THESE ATOMS
    3    7    4
 SEQUENCE NUMBERS OF THE CORRESPONDING SYMMOPS
    2    3    4


 ATOM   9 ATOMIC NUMBER 208 - NUMBER OF SYMMOPS WHICH DO NOT MOVE THE ATOM   4
 SEQUENCE NUMBERS OF THE SYMMOPS
    1    4   10   11
 NUMBER OF ATOMS EQUIVALENT BY SYMMETRY    3
 SEQUENCE NUMBERS OF THESE ATOMS
   10   21   17
 SEQUENCE NUMBERS OF THE CORRESPONDING SYMMOPS
    2    5    6


 ATOM  10 ATOMIC NUMBER 208 - NUMBER OF SYMMOPS WHICH DO NOT MOVE THE ATOM   4
 SEQUENCE NUMBERS OF THE SYMMOPS
    1    4   10   11
 NUMBER OF ATOMS EQUIVALENT BY SYMMETRY    3
 SEQUENCE NUMBERS OF THESE ATOMS
    9   17   21
 SEQUENCE NUMBERS OF THE CORRESPONDING SYMMOPS
    2    5    6


 ATOM  11 ATOMIC NUMBER 208 - NUMBER OF SYMMOPS WHICH DO NOT MOVE THE ATOM   4
 SEQUENCE NUMBERS OF THE SYMMOPS
    1    4   10   11
 NUMBER OF ATOMS EQUIVALENT BY SYMMETRY    3
 SEQUENCE NUMBERS OF THESE ATOMS
   12   23   19
 SEQUENCE NUMBERS OF THE CORRESPONDING SYMMOPS
    2    5    6


 ATOM  12 ATOMIC NUMBER 208 - NUMBER OF SYMMOPS WHICH DO NOT MOVE THE ATOM   4
 SEQUENCE NUMBERS OF THE SYMMOPS
    1    4   10   11
 NUMBER OF ATOMS EQUIVALENT BY SYMMETRY    3
 SEQUENCE NUMBERS OF THESE ATOMS
   11   19   23
 SEQUENCE NUMBERS OF THE CORRESPONDING SYMMOPS
    2    5    6


 ATOM  13 ATOMIC NUMBER 208 - NUMBER OF SYMMOPS WHICH DO NOT MOVE THE ATOM   2
 SEQUENCE NUMBERS OF THE SYMMOPS
    1   10
 NUMBER OF ATOMS EQUIVALENT BY SYMMETRY    7
 SEQUENCE NUMBERS OF THESE ATOMS
   16   14   15   24   18   20   22
 SEQUENCE NUMBERS OF THE CORRESPONDING SYMMOPS
    2    3    4    5    6    7    8


 ATOM  14 ATOMIC NUMBER 208 - NUMBER OF SYMMOPS WHICH DO NOT MOVE THE ATOM   2
 SEQUENCE NUMBERS OF THE SYMMOPS
    1   10
 NUMBER OF ATOMS EQUIVALENT BY SYMMETRY    7
 SEQUENCE NUMBERS OF THESE ATOMS
   15   13   16   20   22   24   18
 SEQUENCE NUMBERS OF THE CORRESPONDING SYMMOPS
    2    3    4    5    6    7    8


 ATOM  15 ATOMIC NUMBER 208 - NUMBER OF SYMMOPS WHICH DO NOT MOVE THE ATOM   2
 SEQUENCE NUMBERS OF THE SYMMOPS
    1   10
 NUMBER OF ATOMS EQUIVALENT BY SYMMETRY    7
 SEQUENCE NUMBERS OF THESE ATOMS
   14   16   13   22   20   18   24
 SEQUENCE NUMBERS OF THE CORRESPONDING SYMMOPS
    2    3    4    5    6    7    8


 ATOM  16 ATOMIC NUMBER 208 - NUMBER OF SYMMOPS WHICH DO NOT MOVE THE ATOM   2
 SEQUENCE NUMBERS OF THE SYMMOPS
    1   10
 NUMBER OF ATOMS EQUIVALENT BY SYMMETRY    7
 SEQUENCE NUMBERS OF THESE ATOMS
   13   15   14   18   24   22   20
 SEQUENCE NUMBERS OF THE CORRESPONDING SYMMOPS
    2    3    4    5    6    7    8


 ATOM  17 ATOMIC NUMBER 208 - NUMBER OF SYMMOPS WHICH DO NOT MOVE THE ATOM   4
 SEQUENCE NUMBERS OF THE SYMMOPS
    1    3   10   12
 NUMBER OF ATOMS EQUIVALENT BY SYMMETRY    3
 SEQUENCE NUMBERS OF THESE ATOMS
   21   10    9
 SEQUENCE NUMBERS OF THE CORRESPONDING SYMMOPS
    2    5    6


 ATOM  18 ATOMIC NUMBER 208 - NUMBER OF SYMMOPS WHICH DO NOT MOVE THE ATOM   2
 SEQUENCE NUMBERS OF THE SYMMOPS
    1   10
 NUMBER OF ATOMS EQUIVALENT BY SYMMETRY    7
 SEQUENCE NUMBERS OF THESE ATOMS
   24   20   22   16   13   14   15
 SEQUENCE NUMBERS OF THE CORRESPONDING SYMMOPS
    2    3    4    5    6    7    8


 ATOM  19 ATOMIC NUMBER 208 - NUMBER OF SYMMOPS WHICH DO NOT MOVE THE ATOM   4
 SEQUENCE NUMBERS OF THE SYMMOPS
    1    3   10   12
 NUMBER OF ATOMS EQUIVALENT BY SYMMETRY    3
 SEQUENCE NUMBERS OF THESE ATOMS
   23   12   11
 SEQUENCE NUMBERS OF THE CORRESPONDING SYMMOPS
    2    5    6


 ATOM  20 ATOMIC NUMBER 208 - NUMBER OF SYMMOPS WHICH DO NOT MOVE THE ATOM   2
 SEQUENCE NUMBERS OF THE SYMMOPS
    1   10
 NUMBER OF ATOMS EQUIVALENT BY SYMMETRY    7
 SEQUENCE NUMBERS OF THESE ATOMS
   22   18   24   14   15   16   13
 SEQUENCE NUMBERS OF THE CORRESPONDING SYMMOPS
    2    3    4    5    6    7    8


 ATOM  21 ATOMIC NUMBER 208 - NUMBER OF SYMMOPS WHICH DO NOT MOVE THE ATOM   4
 SEQUENCE NUMBERS OF THE SYMMOPS
    1    3   10   12
 NUMBER OF ATOMS EQUIVALENT BY SYMMETRY    3
 SEQUENCE NUMBERS OF THESE ATOMS
   17    9   10
 SEQUENCE NUMBERS OF THE CORRESPONDING SYMMOPS
    2    5    6


 ATOM  22 ATOMIC NUMBER 208 - NUMBER OF SYMMOPS WHICH DO NOT MOVE THE ATOM   2
 SEQUENCE NUMBERS OF THE SYMMOPS
    1   10
 NUMBER OF ATOMS EQUIVALENT BY SYMMETRY    7
 SEQUENCE NUMBERS OF THESE ATOMS
   20   24   18   15   14   13   16
 SEQUENCE NUMBERS OF THE CORRESPONDING SYMMOPS
    2    3    4    5    6    7    8


 ATOM  23 ATOMIC NUMBER 208 - NUMBER OF SYMMOPS WHICH DO NOT MOVE THE ATOM   4
 SEQUENCE NUMBERS OF THE SYMMOPS
    1    3   10   12
 NUMBER OF ATOMS EQUIVALENT BY SYMMETRY    3
 SEQUENCE NUMBERS OF THESE ATOMS
   19   11   12
 SEQUENCE NUMBERS OF THE CORRESPONDING SYMMOPS
    2    5    6


 ATOM  24 ATOMIC NUMBER 208 - NUMBER OF SYMMOPS WHICH DO NOT MOVE THE ATOM   2
 SEQUENCE NUMBERS OF THE SYMMOPS
    1   10
 NUMBER OF ATOMS EQUIVALENT BY SYMMETRY    7
 SEQUENCE NUMBERS OF THESE ATOMS
   18   22   20   13   16   15   14
 SEQUENCE NUMBERS OF THE CORRESPONDING SYMMOPS
    2    3    4    5    6    7    8


 ATOM  25 ATOMIC NUMBER 238 - NUMBER OF SYMMOPS WHICH DO NOT MOVE THE ATOM  16
 SEQUENCE NUMBERS OF THE SYMMOPS
    1    2    3    4    5    6    7    8    9   10   11   12   13   14   15
   16
 NO EQUIVALENT ATOMS


 ATOM  26 ATOMIC NUMBER 238 - NUMBER OF SYMMOPS WHICH DO NOT MOVE THE ATOM   4
 SEQUENCE NUMBERS OF THE SYMMOPS
    1    4   10   11
 NUMBER OF ATOMS EQUIVALENT BY SYMMETRY    3
 SEQUENCE NUMBERS OF THESE ATOMS
   28   31   29
 SEQUENCE NUMBERS OF THE CORRESPONDING SYMMOPS
    2    5    6


 ATOM  27 ATOMIC NUMBER 238 - NUMBER OF SYMMOPS WHICH DO NOT MOVE THE ATOM  16
 SEQUENCE NUMBERS OF THE SYMMOPS
    1    2    3    4    5    6    7    8    9   10   11   12   13   14   15
   16
 NO EQUIVALENT ATOMS


 ATOM  28 ATOMIC NUMBER 238 - NUMBER OF SYMMOPS WHICH DO NOT MOVE THE ATOM   4
 SEQUENCE NUMBERS OF THE SYMMOPS
    1    4   10   11
 NUMBER OF ATOMS EQUIVALENT BY SYMMETRY    3
 SEQUENCE NUMBERS OF THESE ATOMS
   26   29   31
 SEQUENCE NUMBERS OF THE CORRESPONDING SYMMOPS
    2    5    6


 ATOM  29 ATOMIC NUMBER 238 - NUMBER OF SYMMOPS WHICH DO NOT MOVE THE ATOM   4
 SEQUENCE NUMBERS OF THE SYMMOPS
    1    3   10   12
 NUMBER OF ATOMS EQUIVALENT BY SYMMETRY    3
 SEQUENCE NUMBERS OF THESE ATOMS
   31   28   26
 SEQUENCE NUMBERS OF THE CORRESPONDING SYMMOPS
    2    5    6


 ATOM  30 ATOMIC NUMBER 238 - NUMBER OF SYMMOPS WHICH DO NOT MOVE THE ATOM   8
 SEQUENCE NUMBERS OF THE SYMMOPS
    1    2    5    6    9   10   13   14
 NUMBER OF ATOMS EQUIVALENT BY SYMMETRY    1
 SEQUENCE NUMBERS OF THESE ATOMS
   32
 SEQUENCE NUMBERS OF THE CORRESPONDING SYMMOPS
    3


 ATOM  31 ATOMIC NUMBER 238 - NUMBER OF SYMMOPS WHICH DO NOT MOVE THE ATOM   4
 SEQUENCE NUMBERS OF THE SYMMOPS
    1    3   10   12
 NUMBER OF ATOMS EQUIVALENT BY SYMMETRY    3
 SEQUENCE NUMBERS OF THESE ATOMS
   29   26   28
 SEQUENCE NUMBERS OF THE CORRESPONDING SYMMOPS
    2    5    6


 ATOM  32 ATOMIC NUMBER 238 - NUMBER OF SYMMOPS WHICH DO NOT MOVE THE ATOM   8
 SEQUENCE NUMBERS OF THE SYMMOPS
    1    2    5    6    9   10   13   14
 NUMBER OF ATOMS EQUIVALENT BY SYMMETRY    1
 SEQUENCE NUMBERS OF THESE ATOMS
   30
 SEQUENCE NUMBERS OF THE CORRESPONDING SYMMOPS
    3

 *****   16 SYMMOPS - TRANSLATORS IN ANGSTROM
 ***** MATRICES AND TRANSLATORS IN THE CARTESIAN REFERENCE FRAME

 ORDER   : ORDER OF THE OPERATOR

 TRANSLA : REAL TRANSLATION (WITHOUT ORIGIN SHIFT) IN CARTESIAN COORDINATES

 uvw/hkl : ORIENTATION OF THE OPERATOR IN CARTESIAN COORDINATES

 LOCATED : ORIGIN OF THE OPERATOR IN CARTESIAN COORDINATES

   NO.   1 INVERSE   1    ORDER   1        NO.   2 INVERSE   2    ORDER   2
    1.000   0.000   0.000     0.000        -1.000   0.000   0.000     0.000
    0.000   1.000   0.000     0.000         0.000  -1.000   0.000     0.000
    0.000   0.000   1.000     0.000         0.000   0.000   1.000     0.000
             OPERATION E(   1)                       OPERATION C(   2)
 DETERMINANT 1.; ROTATION(DEG)   0.      DETERMINANT 1.; ROTATION(DEG) 180.
 TRANSLA (  0.000    0.000    0.000)     TRANSLA (  0.000    0.000    0.000)
 uvw/hkl (  0.000    0.000    0.000)     uvw/hkl (  0.000    0.000    4.000)
 LOCATED (  0.000    0.000    0.000)     LOCATED (  0.000    0.000    0.000)

   NO.   3 INVERSE   3    ORDER   2        NO.   4 INVERSE   4    ORDER   2
    1.000   0.000   0.000     0.000        -1.000   0.000   0.000     0.000
    0.000  -1.000   0.000     0.000         0.000   1.000   0.000     0.000
    0.000   0.000  -1.000     0.000         0.000   0.000  -1.000     0.000
             OPERATION C(   2)                       OPERATION C(   2)
 DETERMINANT 1.; ROTATION(DEG) 180.      DETERMINANT 1.; ROTATION(DEG) 180.
 TRANSLA (  0.000    0.000    0.000)     TRANSLA (  0.000    0.000    0.000)
 uvw/hkl (  4.000    0.000    0.000)     uvw/hkl (  0.000   -4.000    0.000)
 LOCATED (  0.000    0.000    0.000)     LOCATED (  0.000    0.000    0.000)

   NO.   5 INVERSE   5    ORDER   2        NO.   6 INVERSE   6    ORDER   2
    0.000  -1.000   0.000     0.000         0.000   1.000   0.000     0.000
   -1.000   0.000   0.000     0.000         1.000   0.000   0.000     0.000
    0.000   0.000  -1.000     0.000         0.000   0.000  -1.000     0.000
             OPERATION C(   2)                       OPERATION C(   2)
 DETERMINANT 1.; ROTATION(DEG) 180.      DETERMINANT 1.; ROTATION(DEG) 180.
 TRANSLA (  0.000    0.000    0.000)     TRANSLA (  0.000    0.000    0.000)
 uvw/hkl (  2.000   -2.000    0.000)     uvw/hkl ( -2.000   -2.000    0.000)
 LOCATED (  0.000    0.000    0.000)     LOCATED (  0.000    0.000    0.000)

   NO.   7 INVERSE   8    ORDER   4        NO.   8 INVERSE   7    ORDER   4
    0.000   1.000   0.000     0.000         0.000  -1.000   0.000     0.000
   -1.000   0.000   0.000     0.000         1.000   0.000   0.000     0.000
    0.000   0.000   1.000     0.000         0.000   0.000   1.000     0.000
             OPERATION C(   4)                       OPERATION C(   4)
 DETERMINANT 1.; ROTATION(DEG)  90.      DETERMINANT 1.; ROTATION(DEG)  90.
 TRANSLA (  0.000    0.000    0.000)     TRANSLA (  0.000    0.000    0.000)
 uvw/hkl (  0.000    0.000    2.000)     uvw/hkl (  0.000    0.000    2.000)
 LOCATED (  0.000    0.000    0.000)     LOCATED (  0.000    0.000    0.000)

   NO.   9 INVERSE   9    ORDER   2        NO.  10 INVERSE  10    ORDER   2
   -1.000   0.000   0.000     0.000         1.000   0.000   0.000     0.000
    0.000  -1.000   0.000     0.000         0.000   1.000   0.000     0.000
    0.000   0.000  -1.000     0.000         0.000   0.000  -1.000     0.000
             OPERATION I(   2)                       OPERATION M(   2)
 DETERMINANT-1.; ROTATION(DEG) 180.      DETERMINANT-1.; ROTATION(DEG)   0.
 TRANSLA (  0.000    0.000    0.000)     TRANSLA (  0.000    0.000    0.000)
 uvw/hkl (  0.000    0.000    0.000)     uvw/hkl (  0.000    0.000   -2.000)
 LOCATED (  0.000    0.000    0.000)     LOCATED (  0.000    0.000    0.000)

   NO.  11 INVERSE  11    ORDER   2        NO.  12 INVERSE  12    ORDER   2
   -1.000   0.000   0.000     0.000         1.000   0.000   0.000     0.000
    0.000   1.000   0.000     0.000         0.000  -1.000   0.000     0.000
    0.000   0.000   1.000     0.000         0.000   0.000   1.000     0.000
             OPERATION M(   2)                       OPERATION M(   2)
 DETERMINANT-1.; ROTATION(DEG)   0.      DETERMINANT-1.; ROTATION(DEG)   0.
 TRANSLA (  0.000    0.000    0.000)     TRANSLA (  0.000    0.000    0.000)
 uvw/hkl (  2.000    0.000    0.000)     uvw/hkl (  0.000   -2.000    0.000)
 LOCATED (  0.000    0.000    0.000)     LOCATED (  0.000    0.000    0.000)

   NO.  13 INVERSE  13    ORDER   2        NO.  14 INVERSE  14    ORDER   2
    0.000   1.000   0.000     0.000         0.000  -1.000   0.000     0.000
    1.000   0.000   0.000     0.000        -1.000   0.000   0.000     0.000
    0.000   0.000   1.000     0.000         0.000   0.000   1.000     0.000
             OPERATION M(   2)                       OPERATION M(   2)
 DETERMINANT-1.; ROTATION(DEG)   0.      DETERMINANT-1.; ROTATION(DEG)   0.
 TRANSLA (  0.000    0.000    0.000)     TRANSLA (  0.000    0.000    0.000)
 uvw/hkl (  1.000   -1.000    0.000)     uvw/hkl (  1.000    1.000    0.000)
 LOCATED (  0.000    0.000    0.000)     LOCATED (  0.000    0.000    0.000)

   NO.  15 INVERSE  16    ORDER   4        NO.  16 INVERSE  15    ORDER   4
    0.000  -1.000   0.000     0.000         0.000   1.000   0.000     0.000
    1.000   0.000   0.000     0.000        -1.000   0.000   0.000     0.000
    0.000   0.000  -1.000     0.000         0.000   0.000  -1.000     0.000
             OPERATION S(   4)                       OPERATION S(   4)
 DETERMINANT-1.; ROTATION(DEG)  90.      DETERMINANT-1.; ROTATION(DEG)  90.
 TRANSLA (  0.000    0.000    0.000)     TRANSLA (  0.000    0.000    0.000)
 uvw/hkl (  0.000    0.000    2.000)     uvw/hkl (  0.000    0.000    2.000)
 LOCATED (  0.000    0.000    0.000)     LOCATED (  0.000    0.000    0.000)
 SSSSSSSSSSSSSSSSSSSSSSSSSSSSSSSSSSSSSSSSSSSSSSSSSSSSSSSSSSSSSSSSSSSSSSSSSSSSSS
 REDUCTION OF SYMMETRY - ATOMIC LABELS SET TO (ATOM, AT. N., LABEL)
   1(229) 1;   2(229) 2;   3(229) 3;   4(229) 4;   5(229) 5;   6(229) 6;
   7(229) 7;   8(229) 8;   9(208) 0;  10(208) 0;  11(208) 0;  12(208) 0;
  13(208) 0;  14(208) 0;  15(208) 0;  16(208) 0;  17(208) 0;  18(208) 0;
  19(208) 0;  20(208) 0;  21(208) 0;  22(208) 0;  23(208) 0;  24(208) 0;
  25(238) 0;  26(238) 0;  27(238) 0;  28(238) 0;  29(238) 0;  30(238) 0;
  31(238) 0;  32(238) 0;
 THE NUMBER OF SYMMETRY OPERATORS HAS BEEN REDUCED FROM 16 TO  2
 *******************************************************************************

 GCALCO - MAX INDICES DIRECT LATTICE VECTOR     9     9    32
 NO.OF VECTORS CREATED 6999 STARS  569 RMAX   168.68580 BOHR

 GEOMETRY FOR WAVE FUNCTION - DIMENSIONALITY OF THE SYSTEM    3
 (NON PERIODIC DIRECTION: LATTICE PARAMETER FORMALLY SET TO 500)
 *******************************************************************************
 LATTICE PARAMETERS (ANGSTROMS AND DEGREES) - BOHR = 0.5291772083 ANGSTROM
 PRIMITIVE CELL - CENTRING CODE 1/1 VOLUME=   423.813486 - DENSITY  5.731 g/cm^3
         A              B              C           ALPHA      BETA       GAMMA 
    11.10963748    11.10963748     3.43380000    90.000000  90.000000  90.000000
 *******************************************************************************
 ATOMS IN THE ASYMMETRIC UNIT   32 - ATOMS IN THE UNIT CELL:   32
     ATOM                 X/A                 Y/B                 Z/C    
 *******************************************************************************
      1 T 229 CU   -2.500000000000E-01 -5.000000000000E-01  0.000000000000E+00
      2 T 229 CU   -5.000000000000E-01  2.500000000000E-01  0.000000000000E+00
      3 T 229 CU    2.500000000000E-01  0.000000000000E+00  0.000000000000E+00
      4 T 229 CU    0.000000000000E+00 -2.500000000000E-01  0.000000000000E+00
      5 T 229 CU   -5.000000000000E-01 -2.500000000000E-01  0.000000000000E+00
      6 T 229 CU    2.500000000000E-01 -5.000000000000E-01  0.000000000000E+00
      7 T 229 CU    0.000000000000E+00  2.500000000000E-01  0.000000000000E+00
      8 T 229 CU   -2.500000000000E-01  0.000000000000E+00  0.000000000000E+00
      9 T 208 O    -3.750000000000E-01 -3.750000000000E-01  0.000000000000E+00
     10 T 208 O     3.750000000000E-01  3.750000000000E-01  0.000000000000E+00
     11 T 208 O     1.250000000000E-01  1.250000000000E-01  0.000000000000E+00
     12 T 208 O    -1.250000000000E-01 -1.250000000000E-01  0.000000000000E+00
     13 T 208 O     3.750000000000E-01 -1.250000000000E-01  0.000000000000E+00
     14 T 208 O     1.250000000000E-01 -3.750000000000E-01  0.000000000000E+00
     15 T 208 O    -1.250000000000E-01  3.750000000000E-01  0.000000000000E+00
     16 T 208 O    -3.750000000000E-01  1.250000000000E-01  0.000000000000E+00
     17 T 208 O    -3.750000000000E-01  3.750000000000E-01  0.000000000000E+00
     18 T 208 O     3.750000000000E-01  1.250000000000E-01  0.000000000000E+00
     19 T 208 O     1.250000000000E-01 -1.250000000000E-01  0.000000000000E+00
     20 T 208 O    -1.250000000000E-01 -3.750000000000E-01  0.000000000000E+00
     21 T 208 O     3.750000000000E-01 -3.750000000000E-01  0.000000000000E+00
     22 T 208 O     1.250000000000E-01  3.750000000000E-01  0.000000000000E+00
     23 T 208 O    -1.250000000000E-01  1.250000000000E-01  0.000000000000E+00
     24 T 208 O    -3.750000000000E-01 -1.250000000000E-01  0.000000000000E+00
     25 T 238 SR   -5.000000000000E-01 -5.000000000000E-01  5.000000000000E-01
     26 T 238 SR    2.500000000000E-01  2.500000000000E-01  5.000000000000E-01
     27 T 238 SR    0.000000000000E+00  0.000000000000E+00  5.000000000000E-01
     28 T 238 SR   -2.500000000000E-01 -2.500000000000E-01  5.000000000000E-01
     29 T 238 SR    2.500000000000E-01 -2.500000000000E-01  5.000000000000E-01
     30 T 238 SR    0.000000000000E+00 -5.000000000000E-01  5.000000000000E-01
     31 T 238 SR   -2.500000000000E-01  2.500000000000E-01  5.000000000000E-01
     32 T 238 SR   -5.000000000000E-01  0.000000000000E+00  5.000000000000E-01

 T = ATOM BELONGING TO THE ASYMMETRIC UNIT

 ****    2 SYMMOPS - TRANSLATORS IN FRACTIONAL UNITS
 **** MATRICES AND TRANSLATORS IN THE CRYSTALLOGRAPHIC REFERENCE FRAME
   V INV                    ROTATION MATRICES                   TRANSLATORS
   1   1  1.00  0.00  0.00  0.00  1.00  0.00  0.00  0.00  1.00  0.00  0.00  0.00
   2   2  1.00 -0.00  0.00 -0.00  1.00  0.00  0.00  0.00 -1.00  0.00  0.00  0.00

 DIRECT LATTICE VECTORS CARTESIAN COMPONENTS (ANGSTROM)
          X                    Y                    Z
  -0.785570000000E+01  -0.785570000000E+01   0.000000000000E+00
   0.785570000000E+01  -0.785570000000E+01   0.000000000000E+00
   0.000000000000E+00   0.000000000000E+00   0.343380000000E+01


 CARTESIAN COORDINATES - PRIMITIVE CELL
 *******************************************************************************
 *      ATOM          X(ANGSTROM)         Y(ANGSTROM)         Z(ANGSTROM)
 *******************************************************************************
    1   229 CU    5.891775000000E+00 -1.963925000000E+00  0.000000000000E+00
    2   229 CU   -1.963925000000E+00 -5.891775000000E+00  0.000000000000E+00
    3   229 CU   -1.963925000000E+00 -1.963925000000E+00  0.000000000000E+00
    4   229 CU   -1.963925000000E+00  1.963925000000E+00  0.000000000000E+00
    5   229 CU   -5.891775000000E+00 -1.963925000000E+00  0.000000000000E+00
    6   229 CU    1.963925000000E+00 -5.891775000000E+00  0.000000000000E+00
    7   229 CU    1.963925000000E+00 -1.963925000000E+00  0.000000000000E+00
    8   229 CU    1.963925000000E+00  1.963925000000E+00  0.000000000000E+00
    9   208 O    -9.400075532184E-16  5.891775000000E+00  0.000000000000E+00
   10   208 O    -9.400075532184E-16 -5.891775000000E+00  0.000000000000E+00
   11   208 O     0.000000000000E+00 -1.963925000000E+00  0.000000000000E+00
   12   208 O     4.700037766092E-16  1.963925000000E+00  0.000000000000E+00
   13   208 O    -3.927850000000E+00 -1.963925000000E+00  0.000000000000E+00
   14   208 O    -3.927850000000E+00  1.963925000000E+00  0.000000000000E+00
   15   208 O     3.927850000000E+00 -1.963925000000E+00  0.000000000000E+00
   16   208 O     3.927850000000E+00  1.963925000000E+00  0.000000000000E+00
   17   208 O     5.891775000000E+00  9.400075532184E-16  0.000000000000E+00
   18   208 O    -1.963925000000E+00 -3.927850000000E+00  0.000000000000E+00
   19   208 O    -1.963925000000E+00  0.000000000000E+00  0.000000000000E+00
   20   208 O    -1.963925000000E+00  3.927850000000E+00  0.000000000000E+00
   21   208 O    -5.891775000000E+00  1.880015106437E-15  0.000000000000E+00
   22   208 O     1.963925000000E+00 -3.927850000000E+00  0.000000000000E+00
   23   208 O     1.963925000000E+00  4.700037766092E-16  0.000000000000E+00
   24   208 O     1.963925000000E+00  3.927850000000E+00  0.000000000000E+00
   25   238 SR    0.000000000000E+00 -7.855700000000E+00  1.716900000000E+00
   26   238 SR    0.000000000000E+00 -3.927850000000E+00  1.716900000000E+00
   27   238 SR    0.000000000000E+00  0.000000000000E+00  1.716900000000E+00
   28   238 SR    4.700037766092E-16  3.927850000000E+00  1.716900000000E+00
   29   238 SR   -3.927850000000E+00  1.645013218132E-15  1.716900000000E+00
   30   238 SR    3.927850000000E+00 -3.927850000000E+00  1.716900000000E+00
   31   238 SR    3.927850000000E+00  4.700037766092E-16  1.716900000000E+00
   32   238 SR   -3.927850000000E+00 -3.927850000000E+00  1.716900000000E+00

 *******************************************************************************
 *** PSEUDOPOTENTIAL INFORMATION ***
 *******************************************************************************

 ATOMIC NUMBER  29, NUCLEAR CHARGE 19.000, GIVEN IN INPUT       PSEUDOPOTENTIAL
   TYPE       EXPONENT      COEFF.    N      EXPONENT      COEFF.    N
  W0 TMS     6.2514963   19.0000000  -1     6.7272533  118.7784294   1
             6.6102459 -105.8998240   0
  P0 TMS    12.3656871  127.3506942   0
  P1 TMS    11.1607294   71.2298490   0

 ATOMIC NUMBER   8, NUCLEAR CHARGE  6.000, GIVEN IN INPUT       PSEUDOPOTENTIAL
   TYPE       EXPONENT      COEFF.    N      EXPONENT      COEFF.    N
  W0 TMS     9.2979390    6.0000000  -1     8.8649220   55.7876342   1
             8.6292567  -38.8197850   0
  P0 TMS     8.7192445   38.4191413   0

 ATOMIC NUMBER  38, NUCLEAR CHARGE  2.000, GIVEN IN INPUT       PSEUDOPOTENTIAL
   TYPE       EXPONENT      COEFF.    N      EXPONENT      COEFF.    N
  W0 TMS     4.3839388    2.0000000  -1     3.1964983    8.7678775   1
             0.9899150  -14.2552431   0
  P0 TMS     1.2868349  146.8716052   0
  P1 TMS     0.9567448  140.0262284   0
  P2 TMS     1.9483165   24.4454878   0
 INFORMATION **** CHARGED ****  CHARGED CELL - NO TOTAL ENERGY

 NUCLEAR CHARGE  2.640E+02 CHARGE ON SHELLS  2.660E+02
 WARNING **** INPBAS **** UNIT CELL NOT NEUTRAL

 *******************************************************************************
 LOCAL ATOMIC FUNCTIONS BASIS SET
 *******************************************************************************
   ATOM   X(AU)   Y(AU)   Z(AU)  N. TYPE  EXPONENT  S COEF   P COEF   D/F/G COEF
 *******************************************************************************
   1 CU  11.134  -3.711   0.000
                                  1 S  
                                         2.000E-01 2.869E-02 0.000E+00 0.000E+00
                                         4.000E-01-3.644E-02 0.000E+00 0.000E+00
                                         8.000E-01 3.588E-01 0.000E+00 0.000E+00
                                         1.600E+00 4.743E-01 0.000E+00 0.000E+00
                                         3.200E+00 4.984E-01 0.000E+00 0.000E+00
                                         6.400E+00-2.701E-01 0.000E+00 0.000E+00
                                         1.280E+01-1.921E-01 0.000E+00 0.000E+00
                                         2.560E+01 6.296E-02 0.000E+00 0.000E+00
                                         5.120E+01-8.536E-03 0.000E+00 0.000E+00
                                         1.024E+02 8.122E-04 0.000E+00 0.000E+00
                                  2 S  
                                         2.000E-01 2.202E+00 0.000E+00 0.000E+00
                                         4.000E-01-2.282E+00 0.000E+00 0.000E+00
                                         8.000E-01 1.463E+00 0.000E+00 0.000E+00
                                         1.600E+00-1.100E+00 0.000E+00 0.000E+00
                                         3.200E+00 2.968E-01 0.000E+00 0.000E+00
                                         6.400E+00-1.215E-01 0.000E+00 0.000E+00
                                         1.280E+01 1.179E-01 0.000E+00 0.000E+00
                                         2.560E+01-3.414E-02 0.000E+00 0.000E+00
                                         5.120E+01 5.951E-03 0.000E+00 0.000E+00
                                         1.024E+02-7.152E-04 0.000E+00 0.000E+00
                           3-     5 P  
                                         1.859E+01 0.000E+00 3.652E-03 0.000E+00
                                         1.430E+01 0.000E+00-3.708E-02 0.000E+00
                                         5.631E+00 0.000E+00 2.171E-01 0.000E+00
                                         2.683E+00 0.000E+00 4.410E-01 0.000E+00
                                         1.259E+00 0.000E+00 3.587E-01 0.000E+00
                                         5.741E-01 0.000E+00 1.148E-01 0.000E+00
                                         2.092E-01 0.000E+00 7.316E-03 0.000E+00
                           6-    10 D  
                                         2.000E-01 0.000E+00 0.000E+00 2.793E-01
                                         4.000E-01 0.000E+00 0.000E+00-1.172E-01
                                         8.000E-01 0.000E+00 0.000E+00 4.205E-01
                                         1.600E+00 0.000E+00 0.000E+00 1.666E-01
                                         3.200E+00 0.000E+00 0.000E+00 3.152E-01
                                         6.400E+00 0.000E+00 0.000E+00 2.011E-01
                                         1.280E+01 0.000E+00 0.000E+00 1.280E-01
                                         2.560E+01 0.000E+00 0.000E+00 8.945E-03
                                         5.120E+01 0.000E+00 0.000E+00-5.173E-04
                                         1.024E+02 0.000E+00 0.000E+00 2.473E-05
                          11-    17 F  
                                         1.692E+00 0.000E+00 0.000E+00 1.000E+00
                                 18 S  
                                         2.000E-01 1.000E+00 0.000E+00 0.000E+00
                                 19 S  
                                         6.000E-01 1.000E+00 0.000E+00 0.000E+00
                          20-    22 P  
                                         2.000E-01 0.000E+00 1.000E+00 0.000E+00
                          23-    25 P  
                                         6.000E-01 0.000E+00 1.000E+00 0.000E+00
                          26-    30 D  
                                         2.000E-01 0.000E+00 0.000E+00 1.000E+00
                          31-    35 D  
                                         6.000E-01 0.000E+00 0.000E+00 1.000E+00
   2 CU  -3.711 -11.134   0.000
   3 CU  -3.711  -3.711   0.000
   4 CU  -3.711   3.711   0.000
   5 CU -11.134  -3.711   0.000
   6 CU   3.711 -11.134   0.000
   7 CU   3.711  -3.711   0.000
   8 CU   3.711   3.711   0.000
   9 O   -0.000  11.134   0.000
                                281 S  
                                         2.000E-01 2.154E-01 0.000E+00 0.000E+00
                                         4.000E-01 3.519E-01 0.000E+00 0.000E+00
                                         8.000E-01 3.951E-01 0.000E+00 0.000E+00
                                         1.600E+00 1.795E-01 0.000E+00 0.000E+00
                                         3.200E+00-4.321E-02 0.000E+00 0.000E+00
                                         6.400E+00-1.052E-01 0.000E+00 0.000E+00
                                         1.280E+01 1.978E-02 0.000E+00 0.000E+00
                                         2.560E+01-1.974E-03 0.000E+00 0.000E+00
                                         5.120E+01 3.878E-04 0.000E+00 0.000E+00
                                         1.024E+02-5.576E-05 0.000E+00 0.000E+00
                         282-   284 P  
                                         2.000E-01 0.000E+00 2.831E-01 0.000E+00
                                         4.000E-01 0.000E+00 2.058E-01 0.000E+00
                                         8.000E-01 0.000E+00 3.032E-01 0.000E+00
                                         1.600E+00 0.000E+00 2.188E-01 0.000E+00
                                         3.200E+00 0.000E+00 1.362E-01 0.000E+00
                                         6.400E+00 0.000E+00 7.101E-02 0.000E+00
                                         1.280E+01 0.000E+00 2.742E-02 0.000E+00
                                         2.560E+01 0.000E+00 1.611E-03 0.000E+00
                                         5.120E+01 0.000E+00 1.514E-05 0.000E+00
                                         1.024E+02 0.000E+00-2.817E-06 0.000E+00
                         285-   289 D  
                                         6.693E-01 0.000E+00 0.000E+00 1.000E+00
                         290-   296 F  
                                         1.423E+00 0.000E+00 0.000E+00 1.000E+00
                                297 S  
                                         2.000E-01 1.000E+00 0.000E+00 0.000E+00
                                298 S  
                                         6.000E-01 1.000E+00 0.000E+00 0.000E+00
                         299-   301 P  
                                         2.000E-01 0.000E+00 1.000E+00 0.000E+00
                         302-   304 P  
                                         6.000E-01 0.000E+00 1.000E+00 0.000E+00
  10 O   -0.000 -11.134   0.000
  11 O    0.000  -3.711   0.000
  12 O    0.000   3.711   0.000
  13 O   -7.423  -3.711   0.000
  14 O   -7.423   3.711   0.000
  15 O    7.423  -3.711   0.000
  16 O    7.423   3.711   0.000
  17 O   11.134   0.000   0.000
  18 O   -3.711  -7.423   0.000
  19 O   -3.711   0.000   0.000
  20 O   -3.711   7.423   0.000
  21 O  -11.134   0.000   0.000
  22 O    3.711  -7.423   0.000
  23 O    3.711   0.000   0.000
  24 O    3.711   7.423   0.000
  25 SR   0.000 -14.845   3.244
                                665 S  
                                         2.000E-01 6.885E-01 0.000E+00 0.000E+00
                                         4.000E-01-1.121E+00 0.000E+00 0.000E+00
                                         8.000E-01 6.678E-01 0.000E+00 0.000E+00
                                         1.600E+00-2.643E-01 0.000E+00 0.000E+00
                                         3.200E+00 1.079E-01 0.000E+00 0.000E+00
                                         6.400E+00-4.671E-02 0.000E+00 0.000E+00
                                         1.280E+01 1.904E-02 0.000E+00 0.000E+00
                                         2.560E+01-6.568E-03 0.000E+00 0.000E+00
                                         5.120E+01 1.555E-03 0.000E+00 0.000E+00
                                         1.024E+02-1.928E-04 0.000E+00 0.000E+00
                         666-   668 P  
                                         2.000E-01 0.000E+00 3.164E-01 0.000E+00
                                         4.000E-01 0.000E+00-4.659E-01 0.000E+00
                                         8.000E-01 0.000E+00 2.270E-01 0.000E+00
                                         1.600E+00 0.000E+00-6.609E-02 0.000E+00
                                         3.200E+00 0.000E+00 1.630E-02 0.000E+00
                                         6.400E+00 0.000E+00-3.651E-03 0.000E+00
                                         1.280E+01 0.000E+00 7.054E-04 0.000E+00
                                         2.560E+01 0.000E+00-1.785E-04 0.000E+00
                                         5.120E+01 0.000E+00 3.065E-05 0.000E+00
                                         1.024E+02 0.000E+00-2.716E-06 0.000E+00
                         669-   673 D  
                                         1.198E-01 0.000E+00 0.000E+00 1.000E+00
                         674-   680 F  
                                         1.645E-01 0.000E+00 0.000E+00 1.000E+00
                                681 S  
                                         2.000E-01 1.000E+00 0.000E+00 0.000E+00
                                682 S  
                                         6.000E-01 1.000E+00 0.000E+00 0.000E+00
                         683-   685 P  
                                         2.000E-01 0.000E+00 1.000E+00 0.000E+00
                         686-   688 P  
                                         6.000E-01 0.000E+00 1.000E+00 0.000E+00
  26 SR   0.000  -7.423   3.244
  27 SR   0.000   0.000   3.244
  28 SR   0.000   7.423   3.244
  29 SR  -7.423   0.000   3.244
  30 SR   7.423  -7.423   3.244
  31 SR   7.423   0.000   3.244
  32 SR  -7.423  -7.423   3.244
 INFORMATION **** SET_MPP **** PCRYSTAL CALCULATION
 INFORMATION **** READM2 **** NEW DEFAULT: FOCK/KS MATRIX MIXING SET TO 30 %
 INFORMATION **** READM2 **** NEW DEFAULT: FULL DIRECT SCF MODE
 INFORMATION **** READM2 **** NEW DEFAULT: COULOMB BIPOLAR BUFFER SET TO 32 Mb
 INFORMATION **** READM2 **** NEW DEFAULT: EXCHANGE BIPOLAR BUFFER SET TO 32 Mb

 *******************************************************************************
 NEW DEFAULT: DFT INTEGRATION GRID INCREASED TO XLGRID
 NEW DEFAULT: DIIS ACCELERATOR ACTIVE
 USE KEYWORD NODIIS TO TURN IT OFF
 *******************************************************************************

 INFORMATION **** READM2 **** FULL DIRECT SCF (MONO AND BIEL INT) SELECTED
 INFORMATION **** BIPOSIZE **** COULOMB BIPOLAR BUFFER SET TO   100000000
 INFORMATION **** EXCHSIZE **** EXCHANGE BIPOLAR BUFFER SIZE SET TO    10000000
 INFORMATION **** TOLDEE **** SCF TOL ON TOTAL ENERGY SET TO           9
 INFORMATION **** TOLINTEG **** COULOMB AND EXCHANGE SERIES TOLERANCES MODIFIED
 INFORMATION **** MAXCYCLE **** MAX NUMBER OF SCF CYCLES SET TO         200
 INFORMATION **** SMEAR **** FERMI SMEARING ACTIVE
 FERMI SMEARING - TEMPERATURE SMEARING OF FERMI SURFACE  0.1000E-12
 INFORMATION **** SPINLOCK **** LOCK IN A GIVEN SPIN STATE
 ALPHA-BETA ELECTRONS LOCKED TO   0 FOR 200 SCF CYCLES
 SSSSSSSSSSSSSSSSSSSSSSSSSSSSSSSSSSSSSSSSSSSSSSSSSSSSSSSSSSSSSSSSSSSSSSSSSSSSSS
 ATOMIC SPINS SET TO (ATOM, AT. N., SPIN)
   1 229 1   2 229-1   3 229-1   4 229 1   5 229-1   6 229 1   7 229 1   8 229-1
   9 208 0  10 208 0  11 208 0  12 208 0  13 208 0  14 208 0  15 208 0  16 208 0
  17 208 0  18 208 0  19 208 0  20 208 0  21 208 0  22 208 0  23 208 0  24 208 0
  25 238 0  26 238 0  27 238 0  28 238 0  29 238 0  30 238 0  31 238 0  32 238 0
 INFORMATION **** SAVEWF **** not fully tested
 INFORMATION **** GUESSP **** SCF GUESS FROM A PREVIOUS RUN DENSITY MATRIX
 *******************************************************************************
 N. OF ATOMS PER CELL        32  COULOMB OVERLAP TOL         (T1) 10**   -8
 NUMBER OF SHELLS           280  COULOMB PENETRATION TOL     (T2) 10**   -8
 NUMBER OF AO               856  EXCHANGE OVERLAP TOL        (T3) 10**   -8
 N. OF ELECTRONS PER CELL   266  EXCHANGE PSEUDO OVP (F(G))  (T4) 10**   -8
 CORE ELECTRONS PER CELL      0  EXCHANGE PSEUDO OVP (P(G))  (T5) 10**  -16
 N. OF SYMMETRY OPERATORS     2  POLE ORDER IN MONO ZONE                  4
 *******************************************************************************
 TYPE OF CALCULATION :  UNRESTRICTED OPEN SHELL
 KOHN-SHAM HAMILTONIAN

 (EXCHANGE)[CORRELATION] FUNCTIONAL:(PERDEW-BURKE-ERNZERHOF)[PERDEW-BURKE-ERNZERHOF]


 HYBRID EXCHANGE - PERCENTAGE OF FOCK EXCHANGE    25.0000

 SPIN POLARIZED DFT SELECTED
 CORE  PSEUDO POTENTIAL         TOL. ON PSEUDO              (TP) 10**- 6

 CAPPA:IS1  5;IS2  5;IS3  4; K PTS MONK NET  39; SYMMOPS:K SPACE   4;G SPACE   2

 *******************************************************************************
 MAX NUMBER OF SCF CYCLES     200  CONVERGENCE ON DELTAP        10**-19
 WEIGHT OF F(I) IN F(I+1)      30% CONVERGENCE ON ENERGY        10**- 9
 SHRINK. FACT.(MONKH.)    5  5  4  NUMBER OF K POINTS IN THE IBZ     39
 SHRINKING FACTOR(GILAT NET)   10  NUMBER OF K POINTS(GILAT NET)    260
 *******************************************************************************
 *** K POINTS COORDINATES (OBLIQUE COORDINATES IN UNITS OF IS =  5)
   1-R(  0  0  0)   2-C(  1  0  0)   3-C(  2  0  0)   4-C(  0  1  0)
   5-C(  1  1  0)   6-C(  2  1  0)   7-C(  3  1  0)   8-C(  4  1  0)
   9-C(  0  2  0)  10-C(  1  2  0)  11-C(  2  2  0)  12-C(  3  2  0)
  13-C(  4  2  0)  14-C(  0  0  1)  15-C(  1  0  1)  16-C(  2  0  1)
  17-C(  0  1  1)  18-C(  1  1  1)  19-C(  2  1  1)  20-C(  3  1  1)
  21-C(  4  1  1)  22-C(  0  2  1)  23-C(  1  2  1)  24-C(  2  2  1)
  25-C(  3  2  1)  26-C(  4  2  1)  27-R(  0  0  2)  28-C(  1  0  2)
  29-C(  2  0  2)  30-C(  0  1  2)  31-C(  1  1  2)  32-C(  2  1  2)
  33-C(  3  1  2)  34-C(  4  1  2)  35-C(  0  2  2)  36-C(  1  2  2)
  37-C(  2  2  2)  38-C(  3  2  2)  39-C(  4  2  2)

 DIRECT LATTICE VECTORS COMPON. (A.U.)     RECIP. LATTICE VECTORS COMPON. (A.U.) 
        X            Y            Z              X            Y            Z
  -14.8451216  -14.8451216    0.0000000     -0.2116246   -0.2116246    0.0000000
   14.8451216  -14.8451216    0.0000000      0.2116246   -0.2116246    0.0000000
    0.0000000    0.0000000    6.4889416      0.0000000    0.0000000    0.9682912

 DISK SPACE FOR EIGENVECTORS (FTN 10)    55687936 REALS

 SYMMETRY ADAPTION OF THE BLOCH FUNCTIONS ENABLED
 TTTTTTTTTTTTTTTTTTTTTTTTTTTTTT gordsh1     TELAPSE        1.83 TCPU        0.04

 MATRIX SIZE: P(G) 4556392, F(G)  814192, P(G) IRR 1334224, F(G) IRR  500744
 MAX G-VECTOR INDEX FOR 1- AND 2-ELECTRON INTEGRALS  75

 TTTTTTTTTTTTTTTTTTTTTTTTTTTTTT INPUT       TELAPSE        2.15 TCPU        0.21

 NEIGHBORS OF THE NON-EQUIVALENT ATOMS

 N = NUMBER OF NEIGHBORS AT DISTANCE R
    ATOM  N     R/ANG      R/AU   NEIGHBORS (ATOM LABELS AND CELL INDICES)
   1 CU   4     1.9639     3.7113    9 O    0 1 0   15 O    0 0 0   17 O    0 0 0
                                    20 O    0 1 0
   1 CU   8     3.2652     6.1704   25 SR  -1 0 0   25 SR  -1 0-1   28 SR   0 1 0
                                    28 SR   0 1-1   30 SR   0 0 0   30 SR   0 0-1
                                    31 SR   0 0 0   31 SR   0 0-1
   1 CU   2     3.4338     6.4889    1 CU   0 0-1    1 CU   0 0 1
   1 CU   4     3.9278     7.4226    2 CU  -1 0 0    4 CU   0 1 0    5 CU  -1 1 0
                                     7 CU   0 0 0
   1 CU   8     3.9558     7.4753    9 O    0 1 1    9 O    0 1-1   15 O    0 0-1
                                    15 O    0 0 1   17 O    0 0 1   17 O    0 0-1
                                    20 O    0 1 1   20 O    0 1-1
   1 CU   8     4.3915     8.2987   10 O   -1 0 0   12 O    0 1 0   14 O    0 1 0
                                    16 O    0 0 0   21 O   -1 1 0   22 O    0 0 0
                                    23 O    0 0 0   24 O    0 1 0

   2 CU   4     1.9639     3.7113   10 O    0 0 0   16 O    1 0 0   17 O    1 0 0
                                    18 O    0 0 0
   2 CU   8     3.2652     6.1704   25 SR   0 0 0   25 SR   0 0-1   26 SR   0 0 0
                                    26 SR   0 0-1   31 SR   1 0 0   31 SR   1 0-1
                                    32 SR   0 0 0   32 SR   0 0-1
   2 CU   2     3.4338     6.4889    2 CU   0 0-1    2 CU   0 0 1
   2 CU   4     3.9278     7.4226    1 CU   1 0 0    3 CU   0 0 0    6 CU   0 0 0
                                     8 CU   1 0 0
   2 CU   8     3.9558     7.4753   10 O    0 0 1   10 O    0 0-1   16 O    1 0 1
                                    16 O    1 0-1   17 O    1 0 1   17 O    1 0-1
                                    18 O    0 0 1   18 O    0 0-1
   2 CU   8     4.3915     8.2987    9 O    1 1 0   11 O    0 0 0   13 O    0 0 0
                                    15 O    1 0 0   21 O    0 1 0   22 O    0 0 0
                                    23 O    1 0 0   24 O    1 0 0

   3 CU   4     1.9639     3.7113   11 O    0 0 0   13 O    0 0 0   18 O    0 0 0
                                    19 O    0 0 0
   3 CU   8     3.2652     6.1704   26 SR   0 0 0   26 SR   0 0-1   27 SR   0 0 0
                                    27 SR   0 0-1   29 SR   0 0 0   29 SR   0 0-1
                                    32 SR   0 0 0   32 SR   0 0-1
   3 CU   2     3.4338     6.4889    3 CU   0 0-1    3 CU   0 0 1
   3 CU   4     3.9278     7.4226    2 CU   0 0 0    4 CU   0 0 0    5 CU   0 0 0
                                     7 CU   0 0 0
   3 CU   8     3.9558     7.4753   11 O    0 0 1   11 O    0 0-1   13 O    0 0-1
                                    13 O    0 0 1   18 O    0 0-1   18 O    0 0 1
                                    19 O    0 0 1   19 O    0 0-1
   3 CU   8     4.3915     8.2987   10 O    0 0 0   12 O    0 0 0   14 O    0 0 0
                                    16 O    1 0 0   21 O    0 0 0   22 O    0 0 0
                                    23 O    0 0 0   24 O    1 0 0

   4 CU   4     1.9639     3.7113   12 O    0 0 0   14 O    0 0 0   19 O    0 0 0
                                    20 O    0 0 0
   4 CU   8     3.2652     6.1704   27 SR   0 0 0   27 SR   0 0-1   28 SR   0 0 0
                                    28 SR   0 0-1   29 SR   0 0 0   29 SR   0 0-1
                                    30 SR   0-1 0   30 SR   0-1-1
   4 CU   2     3.4338     6.4889    4 CU   0 0-1    4 CU   0 0 1
   4 CU   4     3.9279     7.4226    1 CU   0-1 0    3 CU   0 0 0    6 CU   0-1 0
                                     8 CU   0 0 0
   4 CU   8     3.9558     7.4753   12 O    0 0 1   12 O    0 0-1   14 O    0 0-1
                                    14 O    0 0 1   19 O    0 0-1   19 O    0 0 1
                                    20 O    0 0 1   20 O    0 0-1
   4 CU   8     4.3915     8.2987    9 O    0 0 0   11 O    0 0 0   13 O    0 0 0
                                    15 O    0-1 0   21 O    0 0 0   22 O    0-1 0
                                    23 O    0 0 0   24 O    0 0 0

   5 CU   4     1.9639     3.7113    9 O    1 0 0   13 O    0 0 0   21 O    0 0 0
                                    24 O    1 0 0
   5 CU   8     3.2652     6.1704   25 SR   0-1 0   25 SR   0-1-1   28 SR   1 0 0
                                    28 SR   1 0-1   29 SR   0 0 0   29 SR   0 0-1
                                    32 SR   0 0 0   32 SR   0 0-1
   5 CU   2     3.4338     6.4889    5 CU   0 0-1    5 CU   0 0 1
   5 CU   4     3.9278     7.4226    1 CU   1-1 0    3 CU   0 0 0    6 CU   0-1 0
                                     8 CU   1 0 0
   5 CU   8     3.9558     7.4753    9 O    1 0 1    9 O    1 0-1   13 O    0 0 1
                                    13 O    0 0-1   21 O    0 0 1   21 O    0 0-1
                                    24 O    1 0 1   24 O    1 0-1
   5 CU   8     4.3915     8.2987   10 O    0-1 0   12 O    1 0 0   14 O    0 0 0
                                    16 O    1 0 0   17 O    1-1 0   18 O    0 0 0
                                    19 O    0 0 0   20 O    1 0 0

   6 CU   4     1.9639     3.7113   10 O    0 0 0   14 O    0 1 0   21 O    0 1 0
                                    22 O    0 0 0
   6 CU   8     3.2652     6.1704   25 SR   0 0 0   25 SR   0 0-1   26 SR   0 0 0
                                    26 SR   0 0-1   29 SR   0 1 0   29 SR   0 1-1
                                    30 SR   0 0 0   30 SR   0 0-1
   6 CU   2     3.4338     6.4889    6 CU   0 0-1    6 CU   0 0 1
   6 CU   4     3.9279     7.4226    2 CU   0 0 0    4 CU   0 1 0    5 CU   0 1 0
                                     7 CU   0 0 0
   6 CU   8     3.9558     7.4753   10 O    0 0-1   10 O    0 0 1   14 O    0 1 1
                                    14 O    0 1-1   21 O    0 1 1   21 O    0 1-1
                                    22 O    0 0 1   22 O    0 0-1
   6 CU   8     4.3915     8.2987    9 O    1 1 0   11 O    0 0 0   13 O    0 1 0
                                    15 O    0 0 0   17 O    1 0 0   18 O    0 0 0
                                    19 O    0 1 0   20 O    0 1 0

   7 CU   4     1.9639     3.7113   11 O    0 0 0   15 O    0 0 0   22 O    0 0 0
                                    23 O    0 0 0
   7 CU   8     3.2652     6.1704   26 SR   0 0 0   26 SR   0 0-1   27 SR   0 0 0
                                    27 SR   0 0-1   30 SR   0 0 0   30 SR   0 0-1
                                    31 SR   0 0 0   31 SR   0 0-1
   7 CU   2     3.4338     6.4889    7 CU   0 0-1    7 CU   0 0 1
   7 CU   4     3.9279     7.4226    1 CU   0 0 0    3 CU   0 0 0    6 CU   0 0 0
                                     8 CU   0 0 0
   7 CU   8     3.9558     7.4753   11 O    0 0-1   11 O    0 0 1   15 O    0 0 1
                                    15 O    0 0-1   22 O    0 0-1   22 O    0 0 1
                                    23 O    0 0 1   23 O    0 0-1
   7 CU   8     4.3915     8.2987   10 O    0 0 0   12 O    0 0 0   14 O    0 1 0
                                    16 O    0 0 0   17 O    0 0 0   18 O    0 0 0
                                    19 O    0 0 0   20 O    0 1 0

   8 CU   4     1.9639     3.7113   12 O    0 0 0   16 O    0 0 0   23 O    0 0 0
                                    24 O    0 0 0
   8 CU   8     3.2652     6.1704   27 SR   0 0 0   27 SR   0 0-1   28 SR   0 0 0
                                    28 SR   0 0-1   31 SR   0 0 0   31 SR   0 0-1
                                    32 SR  -1 0 0   32 SR  -1 0-1
   8 CU   2     3.4338     6.4889    8 CU   0 0-1    8 CU   0 0 1
   8 CU   4     3.9278     7.4226    2 CU  -1 0 0    4 CU   0 0 0    5 CU  -1 0 0
                                     7 CU   0 0 0
   8 CU   8     3.9558     7.4753   12 O    0 0-1   12 O    0 0 1   16 O    0 0 1
                                    16 O    0 0-1   23 O    0 0-1   23 O    0 0 1
                                    24 O    0 0 1   24 O    0 0-1
   8 CU   8     4.3915     8.2987    9 O    0 0 0   11 O    0 0 0   13 O   -1 0 0
                                    15 O    0 0 0   17 O    0 0 0   18 O   -1 0 0
                                    19 O    0 0 0   20 O    0 0 0

   9 O    2     1.9639     3.7113    1 CU   0-1 0    5 CU  -1 0 0
   9 O    4     2.6086     4.9295   25 SR  -1-1 0   25 SR  -1-1-1   28 SR   0 0 0
                                    28 SR   0 0-1
   9 O    4     2.7774     5.2485   17 O    0-1 0   20 O    0 0 0   21 O   -1 0 0
                                    24 O    0 0 0
   9 O    2     3.4338     6.4889    9 O    0 0-1    9 O    0 0 1
   9 O    4     3.9279     7.4226   10 O   -1-1 0   12 O    0 0 0   13 O   -1 0 0
                                    15 O    0-1 0
   9 O    4     3.9558     7.4753    1 CU   0-1-1    1 CU   0-1 1    5 CU  -1 0-1
                                     5 CU  -1 0 1

  10 O    2     1.9639     3.7113    2 CU   0 0 0    6 CU   0 0 0
  10 O    4     2.6086     4.9295   25 SR   0 0 0   25 SR   0 0-1   26 SR   0 0 0
                                    26 SR   0 0-1
  10 O    4     2.7774     5.2485   17 O    1 0 0   18 O    0 0 0   21 O    0 1 0
                                    22 O    0 0 0
  10 O    2     3.4338     6.4889   10 O    0 0-1   10 O    0 0 1
  10 O    4     3.9279     7.4226    9 O    1 1 0   11 O    0 0 0   14 O    0 1 0
                                    16 O    1 0 0
  10 O    4     3.9558     7.4753    2 CU   0 0-1    2 CU   0 0 1    6 CU   0 0 1
                                     6 CU   0 0-1

  11 O    2     1.9639     3.7113    3 CU   0 0 0    7 CU   0 0 0
  11 O    4     2.6086     4.9295   26 SR   0 0 0   26 SR   0 0-1   27 SR   0 0 0
                                    27 SR   0 0-1
  11 O    4     2.7774     5.2485   18 O    0 0 0   19 O    0 0 0   22 O    0 0 0
                                    23 O    0 0 0
  11 O    2     3.4338     6.4889   11 O    0 0-1   11 O    0 0 1
  11 O    4     3.9278     7.4226   10 O    0 0 0   12 O    0 0 0   13 O    0 0 0
                                    15 O    0 0 0
  11 O    4     3.9558     7.4753    3 CU   0 0-1    3 CU   0 0 1    7 CU   0 0 1
                                     7 CU   0 0-1

  12 O    2     1.9639     3.7113    4 CU   0 0 0    8 CU   0 0 0
  12 O    4     2.6086     4.9295   27 SR   0 0 0   27 SR   0 0-1   28 SR   0 0 0
                                    28 SR   0 0-1
  12 O    4     2.7774     5.2485   19 O    0 0 0   20 O    0 0 0   23 O    0 0 0
                                    24 O    0 0 0
  12 O    2     3.4338     6.4889   12 O    0 0-1   12 O    0 0 1
  12 O    4     3.9279     7.4226    9 O    0 0 0   11 O    0 0 0   14 O    0 0 0
                                    16 O    0 0 0
  12 O    4     3.9558     7.4753    4 CU   0 0-1    4 CU   0 0 1    8 CU   0 0 1
                                     8 CU   0 0-1

  13 O    2     1.9639     3.7113    3 CU   0 0 0    5 CU   0 0 0
  13 O    4     2.6086     4.9295   29 SR   0 0 0   29 SR   0 0-1   32 SR   0 0 0
                                    32 SR   0 0-1
  13 O    4     2.7774     5.2485   18 O    0 0 0   19 O    0 0 0   21 O    0 0 0
                                    24 O    1 0 0
  13 O    2     3.4338     6.4889   13 O    0 0-1   13 O    0 0 1
  13 O    4     3.9278     7.4226    9 O    1 0 0   11 O    0 0 0   14 O    0 0 0
                                    16 O    1 0 0
  13 O    4     3.9558     7.4753    3 CU   0 0 1    3 CU   0 0-1    5 CU   0 0-1
                                     5 CU   0 0 1

  14 O    2     1.9639     3.7113    4 CU   0 0 0    6 CU   0-1 0
  14 O    4     2.6086     4.9295   29 SR   0 0 0   29 SR   0 0-1   30 SR   0-1 0
                                    30 SR   0-1-1
  14 O    4     2.7774     5.2485   19 O    0 0 0   20 O    0 0 0   21 O    0 0 0
                                    22 O    0-1 0
  14 O    2     3.4338     6.4889   14 O    0 0-1   14 O    0 0 1
  14 O    4     3.9278     7.4226   10 O    0-1 0   12 O    0 0 0   13 O    0 0 0
                                    15 O    0-1 0
  14 O    4     3.9558     7.4753    4 CU   0 0 1    4 CU   0 0-1    6 CU   0-1-1
                                     6 CU   0-1 1

  15 O    2     1.9639     3.7113    1 CU   0 0 0    7 CU   0 0 0
  15 O    4     2.6086     4.9295   30 SR   0 0 0   30 SR   0 0-1   31 SR   0 0 0
                                    31 SR   0 0-1
  15 O    4     2.7774     5.2485   17 O    0 0 0   20 O    0 1 0   22 O    0 0 0
                                    23 O    0 0 0
  15 O    2     3.4338     6.4889   15 O    0 0-1   15 O    0 0 1
  15 O    4     3.9278     7.4226    9 O    0 1 0   11 O    0 0 0   14 O    0 1 0
                                    16 O    0 0 0
  15 O    4     3.9558     7.4753    1 CU   0 0 1    1 CU   0 0-1    7 CU   0 0-1
                                     7 CU   0 0 1

  16 O    2     1.9639     3.7113    2 CU  -1 0 0    8 CU   0 0 0
  16 O    4     2.6086     4.9295   31 SR   0 0 0   31 SR   0 0-1   32 SR  -1 0 0
                                    32 SR  -1 0-1
  16 O    4     2.7774     5.2485   17 O    0 0 0   18 O   -1 0 0   23 O    0 0 0
                                    24 O    0 0 0
  16 O    2     3.4338     6.4889   16 O    0 0-1   16 O    0 0 1
  16 O    4     3.9278     7.4226   10 O   -1 0 0   12 O    0 0 0   13 O   -1 0 0
                                    15 O    0 0 0
  16 O    4     3.9558     7.4753    2 CU  -1 0-1    2 CU  -1 0 1    8 CU   0 0-1
                                     8 CU   0 0 1

  17 O    2     1.9639     3.7113    1 CU   0 0 0    2 CU  -1 0 0
  17 O    4     2.6086     4.9295   25 SR  -1 0 0   25 SR  -1 0-1   31 SR   0 0 0
                                    31 SR   0 0-1
  17 O    4     2.7774     5.2485    9 O    0 1 0   10 O   -1 0 0   15 O    0 0 0
                                    16 O    0 0 0
  17 O    2     3.4338     6.4889   17 O    0 0-1   17 O    0 0 1
  17 O    4     3.9278     7.4226   18 O   -1 0 0   20 O    0 1 0   21 O   -1 1 0
                                    23 O    0 0 0
  17 O    4     3.9558     7.4753    1 CU   0 0-1    1 CU   0 0 1    2 CU  -1 0-1
                                     2 CU  -1 0 1

  18 O    2     1.9639     3.7113    2 CU   0 0 0    3 CU   0 0 0
  18 O    4     2.6086     4.9295   26 SR   0 0 0   26 SR   0 0-1   32 SR   0 0 0
                                    32 SR   0 0-1
  18 O    4     2.7774     5.2485   10 O    0 0 0   11 O    0 0 0   13 O    0 0 0
                                    16 O    1 0 0
  18 O    2     3.4338     6.4889   18 O    0 0-1   18 O    0 0 1
  18 O    4     3.9278     7.4226   17 O    1 0 0   19 O    0 0 0   22 O    0 0 0
                                    24 O    1 0 0
  18 O    4     3.9558     7.4753    2 CU   0 0-1    2 CU   0 0 1    3 CU   0 0 1
                                     3 CU   0 0-1

  19 O    2     1.9639     3.7113    3 CU   0 0 0    4 CU   0 0 0
  19 O    4     2.6086     4.9295   27 SR   0 0 0   27 SR   0 0-1   29 SR   0 0 0
                                    29 SR   0 0-1
  19 O    4     2.7774     5.2485   11 O    0 0 0   12 O    0 0 0   13 O    0 0 0
                                    14 O    0 0 0
  19 O    2     3.4338     6.4889   19 O    0 0-1   19 O    0 0 1
  19 O    4     3.9278     7.4226   18 O    0 0 0   20 O    0 0 0   21 O    0 0 0
                                    23 O    0 0 0
  19 O    4     3.9558     7.4753    3 CU   0 0-1    3 CU   0 0 1    4 CU   0 0 1
                                     4 CU   0 0-1

  20 O    2     1.9639     3.7113    1 CU   0-1 0    4 CU   0 0 0
  20 O    4     2.6086     4.9295   28 SR   0 0 0   28 SR   0 0-1   30 SR   0-1 0
                                    30 SR   0-1-1
  20 O    4     2.7774     5.2485    9 O    0 0 0   12 O    0 0 0   14 O    0 0 0
                                    15 O    0-1 0
  20 O    2     3.4338     6.4889   20 O    0 0-1   20 O    0 0 1
  20 O    4     3.9279     7.4226   17 O    0-1 0   19 O    0 0 0   22 O    0-1 0
                                    24 O    0 0 0
  20 O    4     3.9558     7.4753    1 CU   0-1-1    1 CU   0-1 1    4 CU   0 0-1
                                     4 CU   0 0 1

  21 O    2     1.9639     3.7113    5 CU   0 0 0    6 CU   0-1 0
  21 O    4     2.6086     4.9295   25 SR   0-1 0   25 SR   0-1-1   29 SR   0 0 0
                                    29 SR   0 0-1
  21 O    4     2.7774     5.2485    9 O    1 0 0   10 O    0-1 0   13 O    0 0 0
                                    14 O    0 0 0
  21 O    2     3.4338     6.4889   21 O    0 0-1   21 O    0 0 1
  21 O    4     3.9278     7.4226   17 O    1-1 0   19 O    0 0 0   22 O    0-1 0
                                    24 O    1 0 0
  21 O    4     3.9558     7.4753    5 CU   0 0-1    5 CU   0 0 1    6 CU   0-1-1
                                     6 CU   0-1 1

  22 O    2     1.9639     3.7113    6 CU   0 0 0    7 CU   0 0 0
  22 O    4     2.6086     4.9295   26 SR   0 0 0   26 SR   0 0-1   30 SR   0 0 0
                                    30 SR   0 0-1
  22 O    4     2.7774     5.2485   10 O    0 0 0   11 O    0 0 0   14 O    0 1 0
                                    15 O    0 0 0
  22 O    2     3.4338     6.4889   22 O    0 0-1   22 O    0 0 1
  22 O    4     3.9278     7.4226   18 O    0 0 0   20 O    0 1 0   21 O    0 1 0
                                    23 O    0 0 0
  22 O    4     3.9558     7.4753    6 CU   0 0-1    6 CU   0 0 1    7 CU   0 0 1
                                     7 CU   0 0-1

  23 O    2     1.9639     3.7113    7 CU   0 0 0    8 CU   0 0 0
  23 O    4     2.6086     4.9295   27 SR   0 0 0   27 SR   0 0-1   31 SR   0 0 0
                                    31 SR   0 0-1
  23 O    4     2.7774     5.2485   11 O    0 0 0   12 O    0 0 0   15 O    0 0 0
                                    16 O    0 0 0
  23 O    2     3.4338     6.4889   23 O    0 0-1   23 O    0 0 1
  23 O    4     3.9279     7.4226   17 O    0 0 0   19 O    0 0 0   22 O    0 0 0
                                    24 O    0 0 0
  23 O    4     3.9558     7.4753    7 CU   0 0-1    7 CU   0 0 1    8 CU   0 0 1
                                     8 CU   0 0-1

  24 O    2     1.9639     3.7113    5 CU  -1 0 0    8 CU   0 0 0
  24 O    4     2.6086     4.9295   28 SR   0 0 0   28 SR   0 0-1   32 SR  -1 0 0
                                    32 SR  -1 0-1
  24 O    4     2.7774     5.2485    9 O    0 0 0   12 O    0 0 0   13 O   -1 0 0
                                    16 O    0 0 0
  24 O    2     3.4338     6.4889   24 O    0 0-1   24 O    0 0 1
  24 O    4     3.9279     7.4226   18 O   -1 0 0   20 O    0 0 0   21 O   -1 0 0
                                    23 O    0 0 0
  24 O    4     3.9558     7.4753    5 CU  -1 0-1    5 CU  -1 0 1    8 CU   0 0-1
                                     8 CU   0 0 1

  25 SR   8     2.6086     4.9295    9 O    1 1 0    9 O    1 1 1   10 O    0 0 0
                                    10 O    0 0 1   17 O    1 0 0   17 O    1 0 1
                                    21 O    0 1 0   21 O    0 1 1
  25 SR   8     3.2652     6.1704    1 CU   1 0 0    1 CU   1 0 1    2 CU   0 0 0
                                     2 CU   0 0 1    5 CU   0 1 0    5 CU   0 1 1
                                     6 CU   0 0 0    6 CU   0 0 1
  25 SR   2     3.4338     6.4889   25 SR   0 0-1   25 SR   0 0 1
  25 SR   4     3.9278     7.4226   26 SR   0 0 0   28 SR   1 1 0   29 SR   0 1 0
                                    31 SR   1 0 0
  25 SR  16     4.7152     8.9104   13 O    0 1 0   13 O    0 1 1   14 O    0 1 0
                                    14 O    0 1 1   15 O    1 0 0   15 O    1 0 1
                                    16 O    1 0 0   16 O    1 0 1   18 O    0 0 0
                                    18 O    0 0 1   20 O    1 1 0   20 O    1 1 1
                                    22 O    0 0 0   22 O    0 0 1   24 O    1 1 0
                                    24 O    1 1 1
  25 SR   8     5.2172     9.8590   26 SR   0 0 1   26 SR   0 0-1   28 SR   1 1 1
                                    28 SR   1 1-1   29 SR   0 1 1   29 SR   0 1-1
                                    31 SR   1 0 1   31 SR   1 0-1

  26 SR   8     2.6086     4.9295   10 O    0 0 0   10 O    0 0 1   11 O    0 0 0
                                    11 O    0 0 1   18 O    0 0 0   18 O    0 0 1
                                    22 O    0 0 0   22 O    0 0 1
  26 SR   8     3.2652     6.1704    2 CU   0 0 0    2 CU   0 0 1    3 CU   0 0 0
                                     3 CU   0 0 1    6 CU   0 0 0    6 CU   0 0 1
                                     7 CU   0 0 0    7 CU   0 0 1
  26 SR   2     3.4338     6.4889   26 SR   0 0-1   26 SR   0 0 1
  26 SR   4     3.9278     7.4226   25 SR   0 0 0   27 SR   0 0 0   30 SR   0 0 0
                                    32 SR   0 0 0
  26 SR  16     4.7152     8.9104   13 O    0 0 0   13 O    0 0 1   14 O    0 1 0
                                    14 O    0 1 1   15 O    0 0 0   15 O    0 0 1
                                    16 O    1 0 0   16 O    1 0 1   17 O    1 0 0
                                    17 O    1 0 1   19 O    0 0 0   19 O    0 0 1
                                    21 O    0 1 0   21 O    0 1 1   23 O    0 0 0
                                    23 O    0 0 1
  26 SR   8     5.2172     9.8590   25 SR   0 0-1   25 SR   0 0 1   27 SR   0 0 1
                                    27 SR   0 0-1   30 SR   0 0-1   30 SR   0 0 1
                                    32 SR   0 0 1   32 SR   0 0-1

  27 SR   8     2.6086     4.9295   11 O    0 0 0   11 O    0 0 1   12 O    0 0 0
                                    12 O    0 0 1   19 O    0 0 0   19 O    0 0 1
                                    23 O    0 0 0   23 O    0 0 1
  27 SR   8     3.2652     6.1704    3 CU   0 0 0    3 CU   0 0 1    4 CU   0 0 0
                                     4 CU   0 0 1    7 CU   0 0 0    7 CU   0 0 1
                                     8 CU   0 0 0    8 CU   0 0 1
  27 SR   2     3.4338     6.4889   27 SR   0 0-1   27 SR   0 0 1
  27 SR   4     3.9278     7.4226   26 SR   0 0 0   28 SR   0 0 0   29 SR   0 0 0
                                    31 SR   0 0 0
  27 SR  16     4.7152     8.9104   13 O    0 0 0   13 O    0 0 1   14 O    0 0 0
                                    14 O    0 0 1   15 O    0 0 0   15 O    0 0 1
                                    16 O    0 0 0   16 O    0 0 1   18 O    0 0 0
                                    18 O    0 0 1   20 O    0 0 0   20 O    0 0 1
                                    22 O    0 0 0   22 O    0 0 1   24 O    0 0 0
                                    24 O    0 0 1
  27 SR   8     5.2172     9.8590   26 SR   0 0-1   26 SR   0 0 1   28 SR   0 0 1
                                    28 SR   0 0-1   29 SR   0 0 1   29 SR   0 0-1
                                    31 SR   0 0-1   31 SR   0 0 1

  28 SR   8     2.6086     4.9295    9 O    0 0 0    9 O    0 0 1   12 O    0 0 0
                                    12 O    0 0 1   20 O    0 0 0   20 O    0 0 1
                                    24 O    0 0 0   24 O    0 0 1
  28 SR   8     3.2652     6.1704    1 CU   0-1 0    1 CU   0-1 1    4 CU   0 0 0
                                     4 CU   0 0 1    5 CU  -1 0 0    5 CU  -1 0 1
                                     8 CU   0 0 0    8 CU   0 0 1
  28 SR   2     3.4338     6.4889   28 SR   0 0-1   28 SR   0 0 1
  28 SR   4     3.9279     7.4226   25 SR  -1-1 0   27 SR   0 0 0   30 SR   0-1 0
                                    32 SR  -1 0 0
  28 SR  16     4.7152     8.9104   13 O   -1 0 0   13 O   -1 0 1   14 O    0 0 0
                                    14 O    0 0 1   15 O    0-1 0   15 O    0-1 1
                                    16 O    0 0 0   16 O    0 0 1   17 O    0-1 0
                                    17 O    0-1 1   19 O    0 0 0   19 O    0 0 1
                                    21 O   -1 0 0   21 O   -1 0 1   23 O    0 0 0
                                    23 O    0 0 1
  28 SR   8     5.2172     9.8590   25 SR  -1-1-1   25 SR  -1-1 1   27 SR   0 0-1
                                    27 SR   0 0 1   30 SR   0-1-1   30 SR   0-1 1
                                    32 SR  -1 0-1   32 SR  -1 0 1

  29 SR   8     2.6086     4.9295   13 O    0 0 0   13 O    0 0 1   14 O    0 0 0
                                    14 O    0 0 1   19 O    0 0 0   19 O    0 0 1
                                    21 O    0 0 0   21 O    0 0 1
  29 SR   8     3.2652     6.1704    3 CU   0 0 0    3 CU   0 0 1    4 CU   0 0 0
                                     4 CU   0 0 1    5 CU   0 0 0    5 CU   0 0 1
                                     6 CU   0-1 0    6 CU   0-1 1
  29 SR   2     3.4338     6.4889   29 SR   0 0-1   29 SR   0 0 1
  29 SR   4     3.9278     7.4226   25 SR   0-1 0   27 SR   0 0 0   30 SR   0-1 0
                                    32 SR   0 0 0
  29 SR  16     4.7152     8.9104    9 O    1 0 0    9 O    1 0 1   10 O    0-1 0
                                    10 O    0-1 1   11 O    0 0 0   11 O    0 0 1
                                    12 O    0 0 0   12 O    0 0 1   18 O    0 0 0
                                    18 O    0 0 1   20 O    0 0 0   20 O    0 0 1
                                    22 O    0-1 0   22 O    0-1 1   24 O    1 0 0
                                    24 O    1 0 1
  29 SR   8     5.2172     9.8590   25 SR   0-1-1   25 SR   0-1 1   27 SR   0 0-1
                                    27 SR   0 0 1   30 SR   0-1-1   30 SR   0-1 1
                                    32 SR   0 0-1   32 SR   0 0 1

  30 SR   8     2.6086     4.9295   14 O    0 1 0   14 O    0 1 1   15 O    0 0 0
                                    15 O    0 0 1   20 O    0 1 0   20 O    0 1 1
                                    22 O    0 0 0   22 O    0 0 1
  30 SR   8     3.2652     6.1704    1 CU   0 0 0    1 CU   0 0 1    4 CU   0 1 0
                                     4 CU   0 1 1    6 CU   0 0 0    6 CU   0 0 1
                                     7 CU   0 0 0    7 CU   0 0 1
  30 SR   2     3.4338     6.4889   30 SR   0 0-1   30 SR   0 0 1
  30 SR   4     3.9278     7.4226   26 SR   0 0 0   28 SR   0 1 0   29 SR   0 1 0
                                    31 SR   0 0 0
  30 SR  16     4.7152     8.9104    9 O    0 1 0    9 O    0 1 1   10 O    0 0 0
                                    10 O    0 0 1   11 O    0 0 0   11 O    0 0 1
                                    12 O    0 1 0   12 O    0 1 1   17 O    0 0 0
                                    17 O    0 0 1   19 O    0 1 0   19 O    0 1 1
                                    21 O    0 1 0   21 O    0 1 1   23 O    0 0 0
                                    23 O    0 0 1
  30 SR   8     5.2172     9.8590   26 SR   0 0 1   26 SR   0 0-1   28 SR   0 1 1
                                    28 SR   0 1-1   29 SR   0 1 1   29 SR   0 1-1
                                    31 SR   0 0 1   31 SR   0 0-1

  31 SR   8     2.6086     4.9295   15 O    0 0 0   15 O    0 0 1   16 O    0 0 0
                                    16 O    0 0 1   17 O    0 0 0   17 O    0 0 1
                                    23 O    0 0 0   23 O    0 0 1
  31 SR   8     3.2652     6.1704    1 CU   0 0 0    1 CU   0 0 1    2 CU  -1 0 0
                                     2 CU  -1 0 1    7 CU   0 0 0    7 CU   0 0 1
                                     8 CU   0 0 0    8 CU   0 0 1
  31 SR   2     3.4338     6.4889   31 SR   0 0-1   31 SR   0 0 1
  31 SR   4     3.9279     7.4226   25 SR  -1 0 0   27 SR   0 0 0   30 SR   0 0 0
                                    32 SR  -1 0 0
  31 SR  16     4.7152     8.9104    9 O    0 1 0    9 O    0 1 1   10 O   -1 0 0
                                    10 O   -1 0 1   11 O    0 0 0   11 O    0 0 1
                                    12 O    0 0 0   12 O    0 0 1   18 O   -1 0 0
                                    18 O   -1 0 1   20 O    0 1 0   20 O    0 1 1
                                    22 O    0 0 0   22 O    0 0 1   24 O    0 0 0
                                    24 O    0 0 1
  31 SR   8     5.2172     9.8590   25 SR  -1 0-1   25 SR  -1 0 1   27 SR   0 0 1
                                    27 SR   0 0-1   30 SR   0 0-1   30 SR   0 0 1
                                    32 SR  -1 0-1   32 SR  -1 0 1

  32 SR   8     2.6086     4.9295   13 O    0 0 0   13 O    0 0 1   16 O    1 0 0
                                    16 O    1 0 1   18 O    0 0 0   18 O    0 0 1
                                    24 O    1 0 0   24 O    1 0 1
  32 SR   8     3.2652     6.1704    2 CU   0 0 0    2 CU   0 0 1    3 CU   0 0 0
                                     3 CU   0 0 1    5 CU   0 0 0    5 CU   0 0 1
                                     8 CU   1 0 0    8 CU   1 0 1
  32 SR   2     3.4338     6.4889   32 SR   0 0-1   32 SR   0 0 1
  32 SR   4     3.9278     7.4226   26 SR   0 0 0   28 SR   1 0 0   29 SR   0 0 0
                                    31 SR   1 0 0
  32 SR  16     4.7152     8.9104    9 O    1 0 0    9 O    1 0 1   10 O    0 0 0
                                    10 O    0 0 1   11 O    0 0 0   11 O    0 0 1
                                    12 O    1 0 0   12 O    1 0 1   17 O    1 0 0
                                    17 O    1 0 1   19 O    0 0 0   19 O    0 0 1
                                    21 O    0 0 0   21 O    0 0 1   23 O    1 0 0
                                    23 O    1 0 1
  32 SR   8     5.2172     9.8590   26 SR   0 0-1   26 SR   0 0 1   28 SR   1 0 1
                                    28 SR   1 0-1   29 SR   0 0 1   29 SR   0 0-1
                                    31 SR   1 0 1   31 SR   1 0-1


 SYMMETRY ALLOWED INTERNAL DEGREE(S) OF FREEDOM:  62
[...]
 DIIS TEST: 0.21609E-05 AT SCF   CYCLE   4 - DIIS ACTIVE - HISTORY:     4 CYCLES
 TTTTTTTTTTTTTTTTTTTTTTTTTTTTTT FDIK        TELAPSE    18064.41 TCPU    16898.85
 SPIN LOCKING: NO ENERGY GAP COMPUTED
 TTTTTTTTTTTTTTTTTTTTTTTTTTTTTT PDIG        TELAPSE    18071.32 TCPU    16905.75
 CHARGE NORMALIZATION FACTOR   1.00000000
 TOTAL ATOMIC CHARGES:
  18.7785755  18.7786189  18.7788056  18.7788826  18.7788136  18.7784472
  18.7788659  18.7785787   6.7326075   6.7325736   6.7326325   6.7326045
   6.7280107   6.7280114   6.7280083   6.7280067   6.7325901   6.7280085
   6.7326313   6.7280124   6.7325918   6.7280093   6.7326063   6.7280099
   1.0115100   1.0096528   1.0115213   1.0096530   1.0096541   1.0119273
   1.0096516   1.0119271
 SUMMED SPIN DENSITY           0.00000000
 TOTAL ATOMIC SPINS  :
   0.3891288  -0.3891012  -0.3890033   0.3889615  -0.3889875   0.3892008
   0.3889740  -0.3891344  -0.0000040  -0.0000074  -0.0000005  -0.0000030
  -0.1660912   0.1660845   0.1660907  -0.1660877  -0.0000034  -0.1660900
  -0.0000036   0.1660878  -0.0000082   0.1660872   0.0000002  -0.1660885
  -0.0000005  -0.0000000  -0.0000008  -0.0000002   0.0000004  -0.0172674
  -0.0000008   0.0172678
 TTTTTTTTTTTTTTTTTTTTTTTTTTTTTT MOQGAD      TELAPSE    18071.48 TCPU    16905.92
 TTTTTTTTTTTTTTTTTTTTTTTTTTTTTT SHELLXN     TELAPSE    21061.11 TCPU    19883.19
 TTTTTTTTTTTTTTTTTTTTTTTTTTTTTT MONMO3      TELAPSE    21403.61 TCPU    20225.42
 NUMERICALLY INTEGRATED DENSITY    132.9993982216    132.9993982107
 TTTTTTTTTTTTTTTTTTTTTTTTTTTTTT NUMDFT      TELAPSE    21426.67 TCPU    20248.48
 CYC   5 ETOT(AU) -1.841475740026E+03 DETOT -1.05E-07 tst  1.42E-08 PX  3.24E-04
 CYCLE  5 WAVE FUNCTION SAVED IN FORTRAN UNIT 79
 TTTTTTTTTTTTTTTTTTTTTTTTTTTTTT DIIS        TELAPSE    21451.57 TCPU    20251.16
 DIIS TEST: 0.17709E-05 AT SCF   CYCLE   5 - DIIS ACTIVE - HISTORY:     5 CYCLES
 TTTTTTTTTTTTTTTTTTTTTTTTTTTTTT FDIK        TELAPSE    21475.71 TCPU    20266.06
 SPIN LOCKING: NO ENERGY GAP COMPUTED
 TTTTTTTTTTTTTTTTTTTTTTTTTTTTTT PDIG        TELAPSE    21482.95 TCPU    20270.76
 CHARGE NORMALIZATION FACTOR   1.00000000
 TOTAL ATOMIC CHARGES:
  18.7787058  18.7787520  18.7786438  18.7785169  18.7784903  18.7788609
  18.7785503  18.7789214   6.7325830   6.7326352   6.7325779   6.7326122
   6.7280043   6.7280099   6.7280154   6.7280066   6.7326120   6.7280059
   6.7325809   6.7280130   6.7326077   6.7280128   6.7326095   6.7280042
   1.0115344   1.0096734   1.0115436   1.0096714   1.0096710   1.0119498
   1.0096732   1.0119513
 SUMMED SPIN DENSITY           0.00000000
 TOTAL ATOMIC SPINS  :
   0.3890863  -0.3890225  -0.3891524   0.3891857  -0.3892170   0.3889677
   0.3891618  -0.3889446  -0.0000081   0.0000059  -0.0000183  -0.0000027
  -0.1660901   0.1660942   0.1660866  -0.1660989   0.0000055  -0.1660931
  -0.0000090   0.1660889  -0.0000080   0.1660920  -0.0000116  -0.1660959
  -0.0000008  -0.0000003  -0.0000007   0.0000001  -0.0000010  -0.0172784
   0.0000004   0.0172782
 TTTTTTTTTTTTTTTTTTTTTTTTTTTTTT MOQGAD      TELAPSE    21483.05 TCPU    20270.86
 TTTTTTTTTTTTTTTTTTTTTTTTTTTTTT SHELLXN     TELAPSE    24472.14 TCPU    23249.23
 TTTTTTTTTTTTTTTTTTTTTTTTTTTTTT MONMO3      TELAPSE    24818.71 TCPU    23595.73
 NUMERICALLY INTEGRATED DENSITY    132.9993982054    132.9993981938
 TTTTTTTTTTTTTTTTTTTTTTTTTTTTTT NUMDFT      TELAPSE    24841.81 TCPU    23618.84
 CYC   6 ETOT(AU) -1.841475740087E+03 DETOT -6.10E-08 tst  1.27E-08 PX  3.49E-04
 CYCLE  6 WAVE FUNCTION SAVED IN FORTRAN UNIT 79
 TTTTTTTTTTTTTTTTTTTTTTTTTTTTTT DIIS        TELAPSE    24863.81 TCPU    23630.35
 DIIS TEST: 0.15226E-05 AT SCF   CYCLE   6 - DIIS ACTIVE - HISTORY:     6 CYCLES
 TTTTTTTTTTTTTTTTTTTTTTTTTTTTTT FDIK        TELAPSE    24892.12 TCPU    23643.39
 SPIN LOCKING: NO ENERGY GAP COMPUTED
 TTTTTTTTTTTTTTTTTTTTTTTTTTTTTT PDIG        TELAPSE    24897.39 TCPU    23647.08
 CHARGE NORMALIZATION FACTOR   1.00000000
 TOTAL ATOMIC CHARGES:
  18.7787116  18.7785705  18.7787241  18.7786315  18.7787268  18.7786346
  18.7786037  18.7785665   6.7326088   6.7325818   6.7325918   6.7325731
   6.7280723   6.7280763   6.7280735   6.7280698   6.7325939   6.7280698
   6.7325924   6.7280770   6.7325983   6.7280734   6.7325729   6.7280725
   1.0115318   1.0096556   1.0115391   1.0096552   1.0096564   1.0119220
   1.0096539   1.0119189
 SUMMED SPIN DENSITY           0.00000000
 TOTAL ATOMIC SPINS  :
   0.3890776  -0.3891532  -0.3890797   0.3891276  -0.3890630   0.3891178
   0.3891467  -0.3891682   0.0000024  -0.0000002  -0.0000012  -0.0000023
  -0.1660880   0.1660841   0.1660887  -0.1660866   0.0000037  -0.1660881
  -0.0000036   0.1660864  -0.0000017   0.1660867  -0.0000001  -0.1660865
  -0.0000001   0.0000003   0.0000000   0.0000001   0.0000005  -0.0172855
  -0.0000002   0.0172855
 TTTTTTTTTTTTTTTTTTTTTTTTTTTTTT MOQGAD      TELAPSE    24897.49 TCPU    23647.18
 TTTTTTTTTTTTTTTTTTTTTTTTTTTTTT SHELLXN     TELAPSE    27892.92 TCPU    26628.25
 TTTTTTTTTTTTTTTTTTTTTTTTTTTTTT MONMO3      TELAPSE    28231.28 TCPU    26966.80
 NUMERICALLY INTEGRATED DENSITY    132.9993982083    132.9993981976
 TTTTTTTTTTTTTTTTTTTTTTTTTTTTTT NUMDFT      TELAPSE    28254.37 TCPU    26989.90
 CYC   7 ETOT(AU) -1.841475740218E+03 DETOT -1.31E-07 tst  7.48E-09 PX  2.99E-04
 CYCLE  7 WAVE FUNCTION SAVED IN FORTRAN UNIT 79
 TTTTTTTTTTTTTTTTTTTTTTTTTTTTTT DIIS        TELAPSE    28277.47 TCPU    27001.63
 DIIS TEST: 0.32098E-06 AT SCF   CYCLE   7 - DIIS ACTIVE - HISTORY:     7 CYCLES
 TTTTTTTTTTTTTTTTTTTTTTTTTTTTTT FDIK        TELAPSE    28307.14 TCPU    27012.43
 SPIN LOCKING: NO ENERGY GAP COMPUTED
 TTTTTTTTTTTTTTTTTTTTTTTTTTTTTT PDIG        TELAPSE    28311.46 TCPU    27016.28
 CHARGE NORMALIZATION FACTOR   1.00000000
 TOTAL ATOMIC CHARGES:
  18.7786044  18.7786932  18.7786096  18.7786734  18.7786124  18.7786397
  18.7786940  18.7786806   6.7325866   6.7326000   6.7325876   6.7325951
   6.7280717   6.7280710   6.7280736   6.7280711   6.7325950   6.7280716
   6.7325882   6.7280739   6.7325928   6.7280720   6.7325950   6.7280722
   1.0115238   1.0096493   1.0115300   1.0096481   1.0096485   1.0119150
   1.0096488   1.0119115
 SUMMED SPIN DENSITY           0.00000000
 TOTAL ATOMIC SPINS  :
   0.3891503  -0.3890772  -0.3891587   0.3891125  -0.3891471   0.3891162
   0.3890975  -0.3890941  -0.0000031   0.0000039  -0.0000048   0.0000043
  -0.1660892   0.1660916   0.1660899  -0.1660929   0.0000053  -0.1660910
  -0.0000002   0.1660897  -0.0000045   0.1660915  -0.0000003  -0.1660911
  -0.0000000   0.0000002   0.0000002   0.0000003   0.0000001  -0.0172880
   0.0000004   0.0172883
 TTTTTTTTTTTTTTTTTTTTTTTTTTTTTT MOQGAD      TELAPSE    28311.56 TCPU    27016.38
 TTTTTTTTTTTTTTTTTTTTTTTTTTTTTT SHELLXN     TELAPSE    31303.59 TCPU    29991.14
 TTTTTTTTTTTTTTTTTTTTTTTTTTTTTT MONMO3      TELAPSE    31645.37 TCPU    30331.95
 NUMERICALLY INTEGRATED DENSITY    132.9993982195    132.9993982088
 TTTTTTTTTTTTTTTTTTTTTTTTTTTTTT NUMDFT      TELAPSE    31668.42 TCPU    30354.98
 CYC   8 ETOT(AU) -1.841475740243E+03 DETOT -2.53E-08 tst  2.17E-09 PX  1.10E-04
 CYCLE  8 WAVE FUNCTION SAVED IN FORTRAN UNIT 79
 TTTTTTTTTTTTTTTTTTTTTTTTTTTTTT DIIS        TELAPSE    31693.84 TCPU    30371.48
 DIIS TEST: 0.93354E-07 AT SCF   CYCLE   8 - DIIS ACTIVE - HISTORY:     8 CYCLES
 TTTTTTTTTTTTTTTTTTTTTTTTTTTTTT FDIK        TELAPSE    31724.13 TCPU    30386.69
 SPIN LOCKING: NO ENERGY GAP COMPUTED
 TTTTTTTTTTTTTTTTTTTTTTTTTTTTTT PDIG        TELAPSE    31731.47 TCPU    30392.94
 CHARGE NORMALIZATION FACTOR   1.00000000
 TOTAL ATOMIC CHARGES:
  18.7786598  18.7786417  18.7786698  18.7786583  18.7786653  18.7786654
  18.7786446  18.7786521   6.7326072   6.7326055   6.7326011   6.7325996
   6.7280608   6.7280577   6.7280583   6.7280583   6.7326056   6.7280595
   6.7326028   6.7280601   6.7326083   6.7280573   6.7325983   6.7280605
   1.0115164   1.0096457   1.0115195   1.0096453   1.0096459   1.0119130
   1.0096448   1.0119116
 SUMMED SPIN DENSITY           0.00000000
 TOTAL ATOMIC SPINS  :
   0.3891255  -0.3891215  -0.3891265   0.3891265  -0.3891195   0.3891124
   0.3891349  -0.3891235  -0.0000007   0.0000013  -0.0000036   0.0000005
  -0.1660966   0.1660964   0.1660971  -0.1660987   0.0000038  -0.1660978
  -0.0000025   0.1660960  -0.0000035   0.1660973  -0.0000008  -0.1660972
  -0.0000002   0.0000001   0.0000002   0.0000001   0.0000002  -0.0172912
   0.0000000   0.0172914
 TTTTTTTTTTTTTTTTTTTTTTTTTTTTTT MOQGAD      TELAPSE    31731.67 TCPU    30393.11
 TTTTTTTTTTTTTTTTTTTTTTTTTTTTTT SHELLXN     TELAPSE    34728.65 TCPU    33373.41
 TTTTTTTTTTTTTTTTTTTTTTTTTTTTTT MONMO3      TELAPSE    35065.73 TCPU    33701.42
 NUMERICALLY INTEGRATED DENSITY    132.9993982296    132.9993982186
 TTTTTTTTTTTTTTTTTTTTTTTTTTTTTT NUMDFT      TELAPSE    35088.85 TCPU    33724.55
 CYC   9 ETOT(AU) -1.841475740256E+03 DETOT -1.31E-08 tst  4.01E-10 PX  5.43E-05
 CYCLE  9 WAVE FUNCTION SAVED IN FORTRAN UNIT 79
 TTTTTTTTTTTTTTTTTTTTTTTTTTTTTT DIIS        TELAPSE    35124.96 TCPU    33744.06
 DIIS TEST: 0.19285E-07 AT SCF   CYCLE   9 - DIIS ACTIVE - HISTORY:     9 CYCLES
 TTTTTTTTTTTTTTTTTTTTTTTTTTTTTT FDIK        TELAPSE    35157.32 TCPU    33754.98
 SPIN LOCKING: NO ENERGY GAP COMPUTED
 TTTTTTTTTTTTTTTTTTTTTTTTTTTTTT PDIG        TELAPSE    35165.64 TCPU    33762.87
 CHARGE NORMALIZATION FACTOR   1.00000000
 TOTAL ATOMIC CHARGES:
  18.7786566  18.7786511  18.7786515  18.7786347  18.7786337  18.7786246
  18.7786660  18.7786415   6.7326114   6.7326091   6.7326082   6.7326024
   6.7280611   6.7280603   6.7280615   6.7280607   6.7326131   6.7280605
   6.7326061   6.7280623   6.7326086   6.7280603   6.7326049   6.7280613
   1.0115212   1.0096520   1.0115251   1.0096512   1.0096515   1.0119171
   1.0096512   1.0119192
 SUMMED SPIN DENSITY           0.00000000
 TOTAL ATOMIC SPINS  :
   0.3891314  -0.3891228  -0.3891424   0.3891487  -0.3891474   0.3891456
   0.3891263  -0.3891359  -0.0000022   0.0000028  -0.0000042   0.0000028
  -0.1660976   0.1660974   0.1660984  -0.1660991   0.0000040  -0.1660988
  -0.0000010   0.1660974  -0.0000036   0.1660983  -0.0000005  -0.1660979
  -0.0000001   0.0000001   0.0000001   0.0000000   0.0000002  -0.0172951
  -0.0000000   0.0172953
 TTTTTTTTTTTTTTTTTTTTTTTTTTTTTT MOQGAD      TELAPSE    35165.76 TCPU    33762.99
 TTTTTTTTTTTTTTTTTTTTTTTTTTTTTT SHELLXN     TELAPSE    38160.03 TCPU    36741.64
 TTTTTTTTTTTTTTTTTTTTTTTTTTTTTT MONMO3      TELAPSE    38502.29 TCPU    37084.05
 NUMERICALLY INTEGRATED DENSITY    132.9993982221    132.9993982110
 TTTTTTTTTTTTTTTTTTTTTTTTTTTTTT NUMDFT      TELAPSE    38525.34 TCPU    37107.11
 CYC  10 ETOT(AU) -1.841475740273E+03 DETOT -1.70E-08 tst  7.99E-11 PX  3.96E-05
 CYCLE 10 WAVE FUNCTION SAVED IN FORTRAN UNIT 79
 TTTTTTTTTTTTTTTTTTTTTTTTTTTTTT DIIS        TELAPSE    38550.84 TCPU    37114.62
 DIIS TEST: 0.15344E-07 AT SCF   CYCLE  10 - DIIS ACTIVE - HISTORY:    10 CYCLES
 TTTTTTTTTTTTTTTTTTTTTTTTTTTTTT FDIK        TELAPSE    38577.69 TCPU    37126.28
 SPIN LOCKING: NO ENERGY GAP COMPUTED
 TTTTTTTTTTTTTTTTTTTTTTTTTTTTTT PDIG        TELAPSE    38581.30 TCPU    37129.90
 CHARGE NORMALIZATION FACTOR   1.00000000
 TOTAL ATOMIC CHARGES:
  18.7786232  18.7786374  18.7786492  18.7786696  18.7786537  18.7786611
  18.7786394  18.7786535   6.7326034   6.7326064   6.7325982   6.7326013
   6.7280620   6.7280611   6.7280610   6.7280601   6.7326028   6.7280604
   6.7326018   6.7280627   6.7326082   6.7280603   6.7325981   6.7280617
   1.0115239   1.0096536   1.0115285   1.0096530   1.0096538   1.0119181
   1.0096525   1.0119199
 SUMMED SPIN DENSITY           0.00000000
 TOTAL ATOMIC SPINS  :
   0.3891571  -0.3891376  -0.3891477   0.3891283  -0.3891381   0.3891248
   0.3891475  -0.3891326  -0.0000002   0.0000009  -0.0000021   0.0000011
  -0.1660979   0.1660990   0.1660991  -0.1661007   0.0000036  -0.1660995
  -0.0000013   0.1660983  -0.0000030   0.1660998   0.0000003  -0.1660991
  -0.0000002  -0.0000000  -0.0000000  -0.0000000  -0.0000000  -0.0172966
  -0.0000000   0.0172968
 TTTTTTTTTTTTTTTTTTTTTTTTTTTTTT MOQGAD      TELAPSE    38581.40 TCPU    37130.00
 TTTTTTTTTTTTTTTTTTTTTTTTTTTTTT SHELLXN     TELAPSE    41616.83 TCPU    40108.08
 TTTTTTTTTTTTTTTTTTTTTTTTTTTTTT MONMO3      TELAPSE    41931.11 TCPU    40420.66
 NUMERICALLY INTEGRATED DENSITY    132.9993982236    132.9993982125
 TTTTTTTTTTTTTTTTTTTTTTTTTTTTTT NUMDFT      TELAPSE    41954.22 TCPU    40443.79
 CYC  11 ETOT(AU) -1.841475740278E+03 DETOT -5.41E-09 tst  1.73E-10 PX  3.23E-05
 CYCLE 11 WAVE FUNCTION SAVED IN FORTRAN UNIT 79
 TTTTTTTTTTTTTTTTTTTTTTTTTTTTTT DIIS        TELAPSE    41981.00 TCPU    40456.48
 DIIS TEST: 0.12055E-07 AT SCF   CYCLE  11 - DIIS ACTIVE - HISTORY:    11 CYCLES
 TTTTTTTTTTTTTTTTTTTTTTTTTTTTTT FDIK        TELAPSE    42009.79 TCPU    40466.16
 SPIN LOCKING: NO ENERGY GAP COMPUTED
 TTTTTTTTTTTTTTTTTTTTTTTTTTTTTT PDIG        TELAPSE    42013.58 TCPU    40468.27
 CHARGE NORMALIZATION FACTOR   1.00000000
 TOTAL ATOMIC CHARGES:
  18.7786531  18.7786512  18.7786580  18.7786477  18.7786467  18.7786426
  18.7786594  18.7786521   6.7326033   6.7326021   6.7325980   6.7325951
   6.7280613   6.7280603   6.7280611   6.7280605   6.7326039   6.7280604
   6.7325977   6.7280623   6.7326027   6.7280601   6.7325958   6.7280615
   1.0115244   1.0096535   1.0115292   1.0096527   1.0096533   1.0119181
   1.0096526   1.0119191
 SUMMED SPIN DENSITY           0.00000000
 TOTAL ATOMIC SPINS  :
   0.3891399  -0.3891329  -0.3891445   0.3891456  -0.3891465   0.3891414
   0.3891362  -0.3891374  -0.0000015   0.0000020  -0.0000032   0.0000022
  -0.1660997   0.1660999   0.1661007  -0.1661013   0.0000035  -0.1661009
  -0.0000009   0.1660998  -0.0000031   0.1661008  -0.0000002  -0.1661001
  -0.0000001   0.0000000   0.0000000  -0.0000000   0.0000001  -0.0172978
  -0.0000001   0.0172980
 TTTTTTTTTTTTTTTTTTTTTTTTTTTTTT MOQGAD      TELAPSE    42013.68 TCPU    40468.37
 TTTTTTTTTTTTTTTTTTTTTTTTTTTTTT SHELLXN     TELAPSE    45013.28 TCPU    43447.63
 TTTTTTTTTTTTTTTTTTTTTTTTTTTTTT MONMO3      TELAPSE    45345.30 TCPU    43779.81
 NUMERICALLY INTEGRATED DENSITY    132.9993982264    132.9993982153
 TTTTTTTTTTTTTTTTTTTTTTTTTTTTTT NUMDFT      TELAPSE    45368.37 TCPU    43802.89
 CYC  12 ETOT(AU) -1.841475740284E+03 DETOT -5.68E-09 tst  8.69E-11 PX  2.59E-05
 CYCLE 12 WAVE FUNCTION SAVED IN FORTRAN UNIT 79
 TTTTTTTTTTTTTTTTTTTTTTTTTTTTTT DIIS        TELAPSE    45393.27 TCPU    43813.76
 DIIS TEST: 0.28397E-08 AT SCF   CYCLE  12 - DIIS ACTIVE - HISTORY:    12 CYCLES
 TTTTTTTTTTTTTTTTTTTTTTTTTTTTTT FDIK        TELAPSE    45425.53 TCPU    43825.47
 SPIN LOCKING: NO ENERGY GAP COMPUTED
 TTTTTTTTTTTTTTTTTTTTTTTTTTTTTT PDIG        TELAPSE    45430.11 TCPU    43830.05
 CHARGE NORMALIZATION FACTOR   1.00000000
 TOTAL ATOMIC CHARGES:
  18.7786416  18.7786451  18.7786519  18.7786493  18.7786434  18.7786439
  18.7786493  18.7786465   6.7326088   6.7326090   6.7326037   6.7326023
   6.7280621   6.7280611   6.7280617   6.7280611   6.7326093   6.7280613
   6.7326045   6.7280630   6.7326095   6.7280609   6.7326019   6.7280623
   1.0115216   1.0096514   1.0115260   1.0096507   1.0096513   1.0119176
   1.0096505   1.0119175
 SUMMED SPIN DENSITY           0.00000000
 TOTAL ATOMIC SPINS  :
   0.3891476  -0.3891382  -0.3891476   0.3891445  -0.3891489   0.3891411
   0.3891429  -0.3891412  -0.0000010   0.0000016  -0.0000025   0.0000019
  -0.1661002   0.1661007   0.1661013  -0.1661019   0.0000032  -0.1661014
  -0.0000006   0.1661005  -0.0000027   0.1661014  -0.0000000  -0.1661006
  -0.0000001   0.0000000  -0.0000000  -0.0000000   0.0000001  -0.0172987
  -0.0000001   0.0172988
 TTTTTTTTTTTTTTTTTTTTTTTTTTTTTT MOQGAD      TELAPSE    45430.21 TCPU    43830.15
 TTTTTTTTTTTTTTTTTTTTTTTTTTTTTT SHELLXN     TELAPSE    48424.84 TCPU    46809.53
 TTTTTTTTTTTTTTTTTTTTTTTTTTTTTT MONMO3      TELAPSE    48763.44 TCPU    47148.13
 NUMERICALLY INTEGRATED DENSITY    132.9993982265    132.9993982154
 TTTTTTTTTTTTTTTTTTTTTTTTTTTTTT NUMDFT      TELAPSE    48786.52 TCPU    47171.21
 CYC  13 ETOT(AU) -1.841475740285E+03 DETOT -6.30E-10 tst  5.91E-12 PX  8.93E-06
 CYCLE 13 WAVE FUNCTION SAVED IN FORTRAN UNIT 79
 TTTTTTTTTTTTTTTTTTTTTTTTTTTTTT DIIS        TELAPSE    48812.20 TCPU    47180.45
 DIIS TEST: 0.47194E-09 AT SCF   CYCLE  13 - DIIS ACTIVE - HISTORY:    13 CYCLES
 TTTTTTTTTTTTTTTTTTTTTTTTTTTTTT FDIK        TELAPSE    48841.48 TCPU    47190.02
 SPIN LOCKING: NO ENERGY GAP COMPUTED
 TTTTTTTTTTTTTTTTTTTTTTTTTTTTTT PDIG        TELAPSE    48846.52 TCPU    47192.02
 CHARGE NORMALIZATION FACTOR   1.00000000
 TOTAL ATOMIC CHARGES:
  18.7786443  18.7786412  18.7786468  18.7786475  18.7786485  18.7786431
  18.7786525  18.7786517   6.7326080   6.7326070   6.7326025   6.7326011
   6.7280619   6.7280610   6.7280617   6.7280613   6.7326075   6.7280611
   6.7326024   6.7280629   6.7326086   6.7280608   6.7326016   6.7280622
   1.0115227   1.0096523   1.0115266   1.0096518   1.0096522   1.0119175
   1.0096515   1.0119182
 SUMMED SPIN DENSITY           0.00000000
 TOTAL ATOMIC SPINS  :
   0.3891470  -0.3891433  -0.3891511   0.3891471  -0.3891466   0.3891440
   0.3891421  -0.3891391  -0.0000011   0.0000016  -0.0000023   0.0000019
  -0.1661006   0.1661010   0.1661016  -0.1661021   0.0000026  -0.1661016
  -0.0000006   0.1661007  -0.0000022   0.1661018   0.0000002  -0.1661011
  -0.0000000  -0.0000000  -0.0000000  -0.0000000   0.0000001  -0.0172992
  -0.0000001   0.0172993
 TTTTTTTTTTTTTTTTTTTTTTTTTTTTTT MOQGAD      TELAPSE    48846.63 TCPU    47192.12
 TTTTTTTTTTTTTTTTTTTTTTTTTTTTTT SHELLXN     TELAPSE    51833.15 TCPU    50171.43
 +++ ENERGIES IN A.U. +++
 ::: EXT EL-POLE                                  -1.5077494037869E+04
 ::: EXT EL-SPHEROPOLE                             5.2676919570552E+01
 ::: BIELET ZONE E-E                               1.5912111638333E+04
 ::: TOTAL E-E                                     8.8729452003485E+02
 ::: TOTAL E-N + N-E                              -2.9341062379361E+03
 ::: TOTAL N-N                                    -8.2862678999312E+02
 ::: KINETIC ENERGY                                1.1978409768191E+03
 ::: PSEUDO TOTAL   ENERGY                        -1.6775975310753E+03
 ::: VIRIAL COEFFICIENT                            8.3315360320208E-01
 TTTTTTTTTTTTTTTTTTTTTTTTTTTTTT MONMO3      TELAPSE    52176.85 TCPU    50514.50
 NUMERICALLY INTEGRATED DENSITY    132.9993982267    132.9993982156
 TTTTTTTTTTTTTTTTTTTTTTTTTTTTTT NUMDFT      TELAPSE    52199.99 TCPU    50537.62
 CYC  14 ETOT(AU) -1.841475740287E+03 DETOT -2.16E-09 tst  4.42E-12 PX  8.93E-06

 == SCF ENDED - CONVERGENCE ON ENERGY      E(AU) -1.8414757402868E+03 CYCLES  14


 ENERGY EXPRESSION=HARTREE+FOCK EXCH*0.25000+(PBE        EXCH)*0.75000+PBE        CORR

 FINITE TEMPERATURE DFT CALCULATION 
 TEMPERATURE      (T)    1.000000000000E-13 HARTREE 
 ENERGY           (E)   -1.841475740287E+03
 FREE ENERGY      (F)   -1.841475740287E+03
 ELECTRON ENTROPY (S)    0.000000000000E+00
 (E(T)+F(T))/2    (E0)  -1.841475740287E+03


 TOTAL ENERGY(DFT)(AU)( 14) -1.8414757402868E+03 DE-2.2E-09 tester 4.4E-12
 TTTTTTTTTTTTTTTTTTTTTTTTTTTTTT EDFT        TELAPSE    52200.10 TCPU    50537.64
 EIGENVECTORS IN FORTRAN UNIT  8
 TTTTTTTTTTTTTTTTTTTTTTTTTTTTTT END         TELAPSE    52205.45 TCPU    50542.85
 EEEEEEEEEE TERMINATION  DATE 11 06 2018 TIME 22:53:51.6
NODE    0 CPU TIME =     50542.853
NODE    1 CPU TIME =     50549.157
NODE    2 CPU TIME =     50636.231
NODE    3 CPU TIME =     50542.695
NODE    4 CPU TIME =     50653.752
NODE    5 CPU TIME =     50550.691
NODE    6 CPU TIME =     50628.629
NODE    7 CPU TIME =     50509.928
NODE    8 CPU TIME =     50579.690
NODE    9 CPU TIME =     50580.179
NODE   10 CPU TIME =     50656.471
NODE   11 CPU TIME =     50593.384
NODE   12 CPU TIME =     50658.732
NODE   13 CPU TIME =     50597.221
NODE   14 CPU TIME =     50581.196
NODE   15 CPU TIME =     50693.926
NODE   16 CPU TIME =     50616.641
NODE   17 CPU TIME =     50552.000
NODE   18 CPU TIME =     50636.620
NODE   19 CPU TIME =     50548.812
    TOTAL CPU TIME =   1011908.810
