--------------------------------------------------------------------------
[[30772,1],4]: A high-performance Open MPI point-to-point messaging module
was unable to find any relevant network interfaces:

Module: OpenFabrics (openib)
  Host: golub229

Another transport will be used instead, although this may result in
lower performance.
--------------------------------------------------------------------------
 PROCESS           15  OF           24  WORKING
 PROCESS           19  OF           24  WORKING
 PROCESS           20  OF           24  WORKING
 PROCESS            2  OF           24  WORKING
 PROCESS           14  OF           24  WORKING
 PROCESS           16  OF           24  WORKING
 PROCESS            5  OF           24  WORKING
 PROCESS           11  OF           24  WORKING
 PROCESS            9  OF           24  WORKING
 PROCESS           23  OF           24  WORKING
 PROCESS            1  OF           24  WORKING
 PROCESS           17  OF           24  WORKING
 PROCESS           12  OF           24  WORKING
 PROCESS            0  OF           24  WORKING
 PROCESS            4  OF           24  WORKING
 PROCESS           18  OF           24  WORKING
 PROCESS           21  OF           24  WORKING
 PROCESS            6  OF           24  WORKING
 PROCESS           13  OF           24  WORKING
 PROCESS            3  OF           24  WORKING
 PROCESS            7  OF           24  WORKING
 PROCESS            8  OF           24  WORKING
 PROCESS           10  OF           24  WORKING
 PROCESS           22  OF           24  WORKING

         
 *******************************************************************************
 *                                                                             *
 *                               CRYSTAL17                                     *
 *                      public : 1.0.1 - Jun 21st, 2017                        *
 *                       HTTP://WWW.CRYSTAL.UNITO.IT                           *
 *                                                                             *
 *                              MAIN AUTHORS                                   *
 *                                                                             *
 *  R. DOVESI(1,11), V.R. SAUNDERS(2), C. ROETTI(1,11), R. ORLANDO(1,11),      *
 *  C.M. ZICOVICH-WILSON(1,3), F. PASCALE(4), B. CIVALLERI(1,11),              *
 *  K. DOLL(5), N.M. HARRISON(2,6), I.J. BUSH(7), Ph. D'ARCO(8),               *
 *  M. LLUNELL(9), M. CAUSA'(10), Y. NOEL(8), L. MASCHIO(1,11), A. ERBA(1,11)  *
 *  M. RE'RAT(14), S. CASASSA(1,11)                                            *
 *                                                                             *
 *        CONTRIBUTIONS TO THE CODE HAVE ALSO BEEN GIVEN BY                    *
 *                                                                             *
 *  M. FERRABONE(1,11), M. DE LA PIERRE(1,11), M. FERRERO(1,11),               *
 *  J. BAIMA(1,11), E. ALBANESE(1,11), M.F. PEINTINGER(12), R. BAST(13),       *
 *  B. KIRTMAN(15), V. LACIVITA(1,11), R. DEMICHELIS(1,16)                     *
 *  G. BRANDEBURG(17), S. SALUSTRO(1,11), G. SANSONE(1,11)                     *
 *  M.T. RUGGIERO(18)                                                          *
 *                                                                             *
 * (1) THEORETICAL CHEMISTRY GROUP - UNIVERSITA' DI TORINO - TORINO (ITALY)    *

 * (2) COMPUTATIONAL SCIENCE & ENGINEERING DEPARTMENT - STFC DARESBURY (UK)    *
 * (3) UNIVERSIDAD AUTONOMA DEL ESTADO DE MORELOS - CUERNAVACA (MEXICO)        *
 * (4) UNIVERSITE' DE LORRAINE - NANCY (FRANCE)                                *
 * (5) UNIVERSITAET STUTTGART- STUTTGART (GERMANY)                             *
 * (6) IMPERIAL COLLEGE - LONDON (UK)                                          *
 * (7) OXFORD E-RESEARCH CENTRE - OXFORD (UK)                                  *
 * (8) UPMC - SORBONNE UNIVERSITES - PARIS (FRANCE)                            *
 * (9) UNIVERSIDAD DE BARCELONA - BARCELONA (SPAIN)                            *
 *(10) UNIVERSITA' DI NAPOLI "FEDERICO II" - NAPOLI (ITALY)                    *
 *(11) NIS - NANOSTRUCTURED INTERFACES AND SURFACES - TORINO (ITALY)           *
 *(12) MPI FUER CHEMISCHE ENERGIEKONVERSION - MUELHEIM AN DER RUHR (GERMANY)   *
 *(13) UNIVERSITY OF TROMSO - TROMSO (NORWAY)                                  *
 *(14) UNIVERSITE' DE PAU ET DES PAYS DE L'ADOUR - PAU (FRANCE)                *
 *(15) UNIVERSITY OF CALIFORNIA SANTA BARBARA - SANTA BARBARA (USA)            *
 *(16) CURTIN UNIVERSITY - PERTH (AUSTRALIA)                                   *
 *(17) UNIVERSITY COLLEGE LONDON - LONDON (UK)                                 *
 *(18) CAMBRIDGE UNIVERSITY - CAMBRIDGE (UK)                                   *
 *                                                                             *
 *******************************************************************************
 EEEEEEEEEE STARTING  DATE 22 06 2018 TIME 10:44:14.3
 Generated by CrystalWriter                                                      

 CRYSTAL CALCULATION
 (INPUT ACCORDING TO THE INTERNATIONAL TABLES FOR X-RAY CRYSTALLOGRAPHY)
 CRYSTAL FAMILY                       :  TETRAGONAL  
 CRYSTAL CLASS  (GROTH - 1921)        :  DITETRAGONAL DIPYRAMIDAL             

 SPACE GROUP (CENTROSYMMETRIC)        :  P 4/M M M       

 LATTICE PARAMETERS  (ANGSTROMS AND DEGREES) - CONVENTIONAL CELL
        A           B           C        ALPHA        BETA       GAMMA
     3.92785     3.92785     3.43380    90.00000    90.00000    90.00000


 NUMBER OF IRREDUCIBLE ATOMS IN THE CONVENTIONAL CELL:    4

 INPUT COORDINATES

 ATOM AT. N.              COORDINATES
   1 229     5.000000000000E-01  5.000000000000E-01  0.000000000000E+00
   2 208     0.000000000000E+00  5.000000000000E-01  0.000000000000E+00
   3 208     5.000000000000E-01  0.000000000000E+00  0.000000000000E+00
   4 238     0.000000000000E+00  0.000000000000E+00  5.000000000000E-01

 *******************************************************************************

 << INFORMATION >>: FROM NOW ON, ALL COORDINATES REFER TO THE PRIMITIVE CELL

 *******************************************************************************

 LATTICE PARAMETERS  (ANGSTROMS AND DEGREES) - PRIMITIVE CELL
       A          B          C        ALPHA      BETA     GAMMA        VOLUME
    3.92785    3.92785    3.43380    90.00000  90.00000  90.00000     52.976686

 INPUT LIST - ATOM N.   3 NOT IRREDUCIBLE

 COORDINATES OF THE EQUIVALENT ATOMS (FRACTIONAL UNITS)

 N. ATOM EQUIV AT. N.          X                  Y                  Z

   1   1   1  229 CU   -5.00000000000E-01 -5.00000000000E-01  0.00000000000E+00

   2   2   1  208 O     0.00000000000E+00 -5.00000000000E-01  0.00000000000E+00
   3   2   2  208 O     5.00000000000E-01  0.00000000000E+00  0.00000000000E+00


 NUMBER OF SYMMETRY OPERATORS         :   16
 *******************************************************************************
 * GEOMETRY EDITING - INPUT COORDINATES ARE GIVEN IN ANGSTROM         
 *******************************************************************************

 GEOMETRY NOW FULLY CONSISTENT WITH THE GROUP

 NO SYMMOPS WITH FINITE TRANSLATIONAL COMPONENT

 *******************************************************************************
 * SUPERCELL OPTION
 *******************************************************************************

 INFORMATION **** GEXPAD **** SUPERCELL VOLUME NEGATIVE ? - SIGN OF EXPANSION MATRIX REVERSED

        EXPANSION MATRIX OF PRIMITIVE CELL
 E1    -2.000    -2.000     0.000
 E2     2.000    -2.000     0.000
 E3     0.000     0.000     1.000

 NUMBER OF ATOMS PER SUPERCELL    32

        DIRECT LATTICE VECTORS COMPONENTS (ANGSTROM)
 B1    -7.856    -7.856     0.000
 B2     7.856    -7.856     0.000
 B3     0.000     0.000     3.434

 LATTICE PARAMETERS  (ANGSTROM AND DEGREES)
       A          B          C         ALPHA     BETA     GAMMA        VOLUME
   11.10964   11.10964    3.43380    90.00000  90.00000  90.00000    423.813486


 **** ATOMS BELONGING TO THE SUPERCELL
 LABEL AT.NO.      COORDINATES (ANGSTROM AND FRACTIONAL)
     1   229     5.8918    -1.9639     0.0000    -0.2500     0.5000     0.0000
     2   229     5.8918     1.9639     0.0000    -0.5000     0.2500     0.0000
     3   229    -1.9639    -1.9639     0.0000     0.2500     0.0000     0.0000
     4   229    -1.9639     1.9639     0.0000     0.0000    -0.2500     0.0000
     5   229     1.9639     5.8918     0.0000    -0.5000    -0.2500     0.0000
     6   229     1.9639    -5.8918     0.0000     0.2500     0.5000     0.0000
     7   229     1.9639    -1.9639     0.0000     0.0000     0.2500     0.0000
     8   229     1.9639     1.9639     0.0000    -0.2500     0.0000     0.0000
     9   208    -0.0000     5.8918     0.0000    -0.3750    -0.3750     0.0000
    10   208    -0.0000    -5.8918     0.0000     0.3750     0.3750     0.0000
    11   208     0.0000    -1.9639     0.0000     0.1250     0.1250     0.0000
    12   208     0.0000     1.9639     0.0000    -0.1250    -0.1250     0.0000
    13   208    -3.9279    -1.9639     0.0000     0.3750    -0.1250     0.0000
    14   208    -3.9279     1.9639     0.0000     0.1250    -0.3750     0.0000
    15   208     3.9278    -1.9639     0.0000    -0.1250     0.3750     0.0000
    16   208     3.9278     1.9639     0.0000    -0.3750     0.1250     0.0000
    17   208     5.8918     0.0000     0.0000    -0.3750     0.3750     0.0000
    18   208    -1.9639    -3.9278     0.0000     0.3750     0.1250     0.0000
    19   208    -1.9639     0.0000     0.0000     0.1250    -0.1250     0.0000
    20   208    -1.9639     3.9278     0.0000    -0.1250    -0.3750     0.0000
    21   208    -5.8918     0.0000     0.0000     0.3750    -0.3750     0.0000
    22   208     1.9639    -3.9278     0.0000     0.1250     0.3750     0.0000
    23   208     1.9639     0.0000     0.0000    -0.1250     0.1250     0.0000
    24   208     1.9639     3.9278     0.0000    -0.3750    -0.1250     0.0000
    25   238     7.8557     0.0000     1.7169    -0.5000     0.5000     0.5000
    26   238     0.0000    -3.9278     1.7169     0.2500     0.2500     0.5000
    27   238     0.0000     0.0000     1.7169     0.0000     0.0000     0.5000
    28   238     0.0000     3.9278     1.7169    -0.2500    -0.2500     0.5000
    29   238    -3.9279     0.0000     1.7169     0.2500    -0.2500     0.5000
    30   238     3.9278    -3.9278     1.7169     0.0000     0.5000     0.5000
    31   238     3.9278     0.0000     1.7169    -0.2500     0.2500     0.5000
    32   238     3.9278     3.9278     1.7169    -0.5000     0.0000     0.5000

 **************************** SUPERCELL GENERATED ****************************
 *********************************************************************
                        ATOMIC SITE SYMMETRIES
 *********************************************************************


 ATOM   1 ATOMIC NUMBER 229 - NUMBER OF SYMMOPS WHICH DO NOT MOVE THE ATOM   4
 SEQUENCE NUMBERS OF THE SYMMOPS
    1    6   10   13
 NUMBER OF ATOMS EQUIVALENT BY SYMMETRY    3
 SEQUENCE NUMBERS OF THESE ATOMS
    6    2    5
 SEQUENCE NUMBERS OF THE CORRESPONDING SYMMOPS
    2    3    4


 ATOM   2 ATOMIC NUMBER 229 - NUMBER OF SYMMOPS WHICH DO NOT MOVE THE ATOM   4
 SEQUENCE NUMBERS OF THE SYMMOPS
    1    5   10   14
 NUMBER OF ATOMS EQUIVALENT BY SYMMETRY    3
 SEQUENCE NUMBERS OF THESE ATOMS
    5    1    6
 SEQUENCE NUMBERS OF THE CORRESPONDING SYMMOPS
    2    3    4


 ATOM   3 ATOMIC NUMBER 229 - NUMBER OF SYMMOPS WHICH DO NOT MOVE THE ATOM   4
 SEQUENCE NUMBERS OF THE SYMMOPS
    1    6   10   13
 NUMBER OF ATOMS EQUIVALENT BY SYMMETRY    3
 SEQUENCE NUMBERS OF THESE ATOMS
    8    4    7
 SEQUENCE NUMBERS OF THE CORRESPONDING SYMMOPS
    2    3    4


 ATOM   4 ATOMIC NUMBER 229 - NUMBER OF SYMMOPS WHICH DO NOT MOVE THE ATOM   4
 SEQUENCE NUMBERS OF THE SYMMOPS
    1    5   10   14
 NUMBER OF ATOMS EQUIVALENT BY SYMMETRY    3
 SEQUENCE NUMBERS OF THESE ATOMS
    7    3    8
 SEQUENCE NUMBERS OF THE CORRESPONDING SYMMOPS
    2    3    4


 ATOM   5 ATOMIC NUMBER 229 - NUMBER OF SYMMOPS WHICH DO NOT MOVE THE ATOM   4
 SEQUENCE NUMBERS OF THE SYMMOPS
    1    5   10   14
 NUMBER OF ATOMS EQUIVALENT BY SYMMETRY    3
 SEQUENCE NUMBERS OF THESE ATOMS
    2    6    1
 SEQUENCE NUMBERS OF THE CORRESPONDING SYMMOPS
    2    3    4


 ATOM   6 ATOMIC NUMBER 229 - NUMBER OF SYMMOPS WHICH DO NOT MOVE THE ATOM   4
 SEQUENCE NUMBERS OF THE SYMMOPS
    1    6   10   13
 NUMBER OF ATOMS EQUIVALENT BY SYMMETRY    3
 SEQUENCE NUMBERS OF THESE ATOMS
    1    5    2
 SEQUENCE NUMBERS OF THE CORRESPONDING SYMMOPS
    2    3    4


 ATOM   7 ATOMIC NUMBER 229 - NUMBER OF SYMMOPS WHICH DO NOT MOVE THE ATOM   4
 SEQUENCE NUMBERS OF THE SYMMOPS
    1    5   10   14
 NUMBER OF ATOMS EQUIVALENT BY SYMMETRY    3
 SEQUENCE NUMBERS OF THESE ATOMS
    4    8    3
 SEQUENCE NUMBERS OF THE CORRESPONDING SYMMOPS
    2    3    4


 ATOM   8 ATOMIC NUMBER 229 - NUMBER OF SYMMOPS WHICH DO NOT MOVE THE ATOM   4
 SEQUENCE NUMBERS OF THE SYMMOPS
    1    6   10   13
 NUMBER OF ATOMS EQUIVALENT BY SYMMETRY    3
 SEQUENCE NUMBERS OF THESE ATOMS
    3    7    4
 SEQUENCE NUMBERS OF THE CORRESPONDING SYMMOPS
    2    3    4


 ATOM   9 ATOMIC NUMBER 208 - NUMBER OF SYMMOPS WHICH DO NOT MOVE THE ATOM   4
 SEQUENCE NUMBERS OF THE SYMMOPS
    1    4   10   11
 NUMBER OF ATOMS EQUIVALENT BY SYMMETRY    3
 SEQUENCE NUMBERS OF THESE ATOMS
   10   21   17
 SEQUENCE NUMBERS OF THE CORRESPONDING SYMMOPS
    2    5    6


 ATOM  10 ATOMIC NUMBER 208 - NUMBER OF SYMMOPS WHICH DO NOT MOVE THE ATOM   4
 SEQUENCE NUMBERS OF THE SYMMOPS
    1    4   10   11
 NUMBER OF ATOMS EQUIVALENT BY SYMMETRY    3
 SEQUENCE NUMBERS OF THESE ATOMS
    9   17   21
 SEQUENCE NUMBERS OF THE CORRESPONDING SYMMOPS
    2    5    6


 ATOM  11 ATOMIC NUMBER 208 - NUMBER OF SYMMOPS WHICH DO NOT MOVE THE ATOM   4
 SEQUENCE NUMBERS OF THE SYMMOPS
    1    4   10   11
 NUMBER OF ATOMS EQUIVALENT BY SYMMETRY    3
 SEQUENCE NUMBERS OF THESE ATOMS
   12   23   19
 SEQUENCE NUMBERS OF THE CORRESPONDING SYMMOPS
    2    5    6


 ATOM  12 ATOMIC NUMBER 208 - NUMBER OF SYMMOPS WHICH DO NOT MOVE THE ATOM   4
 SEQUENCE NUMBERS OF THE SYMMOPS
    1    4   10   11
 NUMBER OF ATOMS EQUIVALENT BY SYMMETRY    3
 SEQUENCE NUMBERS OF THESE ATOMS
   11   19   23
 SEQUENCE NUMBERS OF THE CORRESPONDING SYMMOPS
    2    5    6


 ATOM  13 ATOMIC NUMBER 208 - NUMBER OF SYMMOPS WHICH DO NOT MOVE THE ATOM   2
 SEQUENCE NUMBERS OF THE SYMMOPS
    1   10
 NUMBER OF ATOMS EQUIVALENT BY SYMMETRY    7
 SEQUENCE NUMBERS OF THESE ATOMS
   16   14   15   24   18   20   22
 SEQUENCE NUMBERS OF THE CORRESPONDING SYMMOPS
    2    3    4    5    6    7    8


 ATOM  14 ATOMIC NUMBER 208 - NUMBER OF SYMMOPS WHICH DO NOT MOVE THE ATOM   2
 SEQUENCE NUMBERS OF THE SYMMOPS
    1   10
 NUMBER OF ATOMS EQUIVALENT BY SYMMETRY    7
 SEQUENCE NUMBERS OF THESE ATOMS
   15   13   16   20   22   24   18
 SEQUENCE NUMBERS OF THE CORRESPONDING SYMMOPS
    2    3    4    5    6    7    8


 ATOM  15 ATOMIC NUMBER 208 - NUMBER OF SYMMOPS WHICH DO NOT MOVE THE ATOM   2
 SEQUENCE NUMBERS OF THE SYMMOPS
    1   10
 NUMBER OF ATOMS EQUIVALENT BY SYMMETRY    7
 SEQUENCE NUMBERS OF THESE ATOMS
   14   16   13   22   20   18   24
 SEQUENCE NUMBERS OF THE CORRESPONDING SYMMOPS
    2    3    4    5    6    7    8


 ATOM  16 ATOMIC NUMBER 208 - NUMBER OF SYMMOPS WHICH DO NOT MOVE THE ATOM   2
 SEQUENCE NUMBERS OF THE SYMMOPS
    1   10
 NUMBER OF ATOMS EQUIVALENT BY SYMMETRY    7
 SEQUENCE NUMBERS OF THESE ATOMS
   13   15   14   18   24   22   20
 SEQUENCE NUMBERS OF THE CORRESPONDING SYMMOPS
    2    3    4    5    6    7    8


 ATOM  17 ATOMIC NUMBER 208 - NUMBER OF SYMMOPS WHICH DO NOT MOVE THE ATOM   4
 SEQUENCE NUMBERS OF THE SYMMOPS
    1    3   10   12
 NUMBER OF ATOMS EQUIVALENT BY SYMMETRY    3
 SEQUENCE NUMBERS OF THESE ATOMS
   21   10    9
 SEQUENCE NUMBERS OF THE CORRESPONDING SYMMOPS
    2    5    6


 ATOM  18 ATOMIC NUMBER 208 - NUMBER OF SYMMOPS WHICH DO NOT MOVE THE ATOM   2
 SEQUENCE NUMBERS OF THE SYMMOPS
    1   10
 NUMBER OF ATOMS EQUIVALENT BY SYMMETRY    7
 SEQUENCE NUMBERS OF THESE ATOMS
   24   20   22   16   13   14   15
 SEQUENCE NUMBERS OF THE CORRESPONDING SYMMOPS
    2    3    4    5    6    7    8


 ATOM  19 ATOMIC NUMBER 208 - NUMBER OF SYMMOPS WHICH DO NOT MOVE THE ATOM   4
 SEQUENCE NUMBERS OF THE SYMMOPS
    1    3   10   12
 NUMBER OF ATOMS EQUIVALENT BY SYMMETRY    3
 SEQUENCE NUMBERS OF THESE ATOMS
   23   12   11
 SEQUENCE NUMBERS OF THE CORRESPONDING SYMMOPS
    2    5    6


 ATOM  20 ATOMIC NUMBER 208 - NUMBER OF SYMMOPS WHICH DO NOT MOVE THE ATOM   2
 SEQUENCE NUMBERS OF THE SYMMOPS
    1   10
 NUMBER OF ATOMS EQUIVALENT BY SYMMETRY    7
 SEQUENCE NUMBERS OF THESE ATOMS
   22   18   24   14   15   16   13
 SEQUENCE NUMBERS OF THE CORRESPONDING SYMMOPS
    2    3    4    5    6    7    8


 ATOM  21 ATOMIC NUMBER 208 - NUMBER OF SYMMOPS WHICH DO NOT MOVE THE ATOM   4
 SEQUENCE NUMBERS OF THE SYMMOPS
    1    3   10   12
 NUMBER OF ATOMS EQUIVALENT BY SYMMETRY    3
 SEQUENCE NUMBERS OF THESE ATOMS
   17    9   10
 SEQUENCE NUMBERS OF THE CORRESPONDING SYMMOPS
    2    5    6


 ATOM  22 ATOMIC NUMBER 208 - NUMBER OF SYMMOPS WHICH DO NOT MOVE THE ATOM   2
 SEQUENCE NUMBERS OF THE SYMMOPS
    1   10
 NUMBER OF ATOMS EQUIVALENT BY SYMMETRY    7
 SEQUENCE NUMBERS OF THESE ATOMS
   20   24   18   15   14   13   16
 SEQUENCE NUMBERS OF THE CORRESPONDING SYMMOPS
    2    3    4    5    6    7    8


 ATOM  23 ATOMIC NUMBER 208 - NUMBER OF SYMMOPS WHICH DO NOT MOVE THE ATOM   4
 SEQUENCE NUMBERS OF THE SYMMOPS
    1    3   10   12
 NUMBER OF ATOMS EQUIVALENT BY SYMMETRY    3
 SEQUENCE NUMBERS OF THESE ATOMS
   19   11   12
 SEQUENCE NUMBERS OF THE CORRESPONDING SYMMOPS
    2    5    6


 ATOM  24 ATOMIC NUMBER 208 - NUMBER OF SYMMOPS WHICH DO NOT MOVE THE ATOM   2
 SEQUENCE NUMBERS OF THE SYMMOPS
    1   10
 NUMBER OF ATOMS EQUIVALENT BY SYMMETRY    7
 SEQUENCE NUMBERS OF THESE ATOMS
   18   22   20   13   16   15   14
 SEQUENCE NUMBERS OF THE CORRESPONDING SYMMOPS
    2    3    4    5    6    7    8


 ATOM  25 ATOMIC NUMBER 238 - NUMBER OF SYMMOPS WHICH DO NOT MOVE THE ATOM  16
 SEQUENCE NUMBERS OF THE SYMMOPS
    1    2    3    4    5    6    7    8    9   10   11   12   13   14   15
   16
 NO EQUIVALENT ATOMS


 ATOM  26 ATOMIC NUMBER 238 - NUMBER OF SYMMOPS WHICH DO NOT MOVE THE ATOM   4
 SEQUENCE NUMBERS OF THE SYMMOPS
    1    4   10   11
 NUMBER OF ATOMS EQUIVALENT BY SYMMETRY    3
 SEQUENCE NUMBERS OF THESE ATOMS
   28   31   29
 SEQUENCE NUMBERS OF THE CORRESPONDING SYMMOPS
    2    5    6


 ATOM  27 ATOMIC NUMBER 238 - NUMBER OF SYMMOPS WHICH DO NOT MOVE THE ATOM  16
 SEQUENCE NUMBERS OF THE SYMMOPS
    1    2    3    4    5    6    7    8    9   10   11   12   13   14   15
   16
 NO EQUIVALENT ATOMS


 ATOM  28 ATOMIC NUMBER 238 - NUMBER OF SYMMOPS WHICH DO NOT MOVE THE ATOM   4
 SEQUENCE NUMBERS OF THE SYMMOPS
    1    4   10   11
 NUMBER OF ATOMS EQUIVALENT BY SYMMETRY    3
 SEQUENCE NUMBERS OF THESE ATOMS
   26   29   31
 SEQUENCE NUMBERS OF THE CORRESPONDING SYMMOPS
    2    5    6


 ATOM  29 ATOMIC NUMBER 238 - NUMBER OF SYMMOPS WHICH DO NOT MOVE THE ATOM   4
 SEQUENCE NUMBERS OF THE SYMMOPS
    1    3   10   12
 NUMBER OF ATOMS EQUIVALENT BY SYMMETRY    3
 SEQUENCE NUMBERS OF THESE ATOMS
   31   28   26
 SEQUENCE NUMBERS OF THE CORRESPONDING SYMMOPS
    2    5    6


 ATOM  30 ATOMIC NUMBER 238 - NUMBER OF SYMMOPS WHICH DO NOT MOVE THE ATOM   8
 SEQUENCE NUMBERS OF THE SYMMOPS
    1    2    5    6    9   10   13   14
 NUMBER OF ATOMS EQUIVALENT BY SYMMETRY    1
 SEQUENCE NUMBERS OF THESE ATOMS
   32
 SEQUENCE NUMBERS OF THE CORRESPONDING SYMMOPS
    3


 ATOM  31 ATOMIC NUMBER 238 - NUMBER OF SYMMOPS WHICH DO NOT MOVE THE ATOM   4
 SEQUENCE NUMBERS OF THE SYMMOPS
    1    3   10   12
 NUMBER OF ATOMS EQUIVALENT BY SYMMETRY    3
 SEQUENCE NUMBERS OF THESE ATOMS
   29   26   28
 SEQUENCE NUMBERS OF THE CORRESPONDING SYMMOPS
    2    5    6


 ATOM  32 ATOMIC NUMBER 238 - NUMBER OF SYMMOPS WHICH DO NOT MOVE THE ATOM   8
 SEQUENCE NUMBERS OF THE SYMMOPS
    1    2    5    6    9   10   13   14
 NUMBER OF ATOMS EQUIVALENT BY SYMMETRY    1
 SEQUENCE NUMBERS OF THESE ATOMS
   30
 SEQUENCE NUMBERS OF THE CORRESPONDING SYMMOPS
    3

 *****   16 SYMMOPS - TRANSLATORS IN ANGSTROM
 ***** MATRICES AND TRANSLATORS IN THE CARTESIAN REFERENCE FRAME

 ORDER   : ORDER OF THE OPERATOR

 TRANSLA : REAL TRANSLATION (WITHOUT ORIGIN SHIFT) IN CARTESIAN COORDINATES

 uvw/hkl : ORIENTATION OF THE OPERATOR IN CARTESIAN COORDINATES

 LOCATED : ORIGIN OF THE OPERATOR IN CARTESIAN COORDINATES

   NO.   1 INVERSE   1    ORDER   1        NO.   2 INVERSE   2    ORDER   2
    1.000   0.000   0.000     0.000        -1.000   0.000   0.000     0.000
    0.000   1.000   0.000     0.000         0.000  -1.000   0.000     0.000
    0.000   0.000   1.000     0.000         0.000   0.000   1.000     0.000
             OPERATION E(   1)                       OPERATION C(   2)
 DETERMINANT 1.; ROTATION(DEG)   0.      DETERMINANT 1.; ROTATION(DEG) 180.
 TRANSLA (  0.000    0.000    0.000)     TRANSLA (  0.000    0.000    0.000)
 uvw/hkl (  0.000    0.000    0.000)     uvw/hkl (  0.000    0.000    4.000)
 LOCATED (  0.000    0.000    0.000)     LOCATED (  0.000    0.000    0.000)

   NO.   3 INVERSE   3    ORDER   2        NO.   4 INVERSE   4    ORDER   2
    1.000   0.000   0.000     0.000        -1.000   0.000   0.000     0.000
    0.000  -1.000   0.000     0.000         0.000   1.000   0.000     0.000
    0.000   0.000  -1.000     0.000         0.000   0.000  -1.000     0.000
             OPERATION C(   2)                       OPERATION C(   2)
 DETERMINANT 1.; ROTATION(DEG) 180.      DETERMINANT 1.; ROTATION(DEG) 180.
 TRANSLA (  0.000    0.000    0.000)     TRANSLA (  0.000    0.000    0.000)
 uvw/hkl (  4.000    0.000    0.000)     uvw/hkl (  0.000   -4.000    0.000)
 LOCATED (  0.000    0.000    0.000)     LOCATED (  0.000    0.000    0.000)

   NO.   5 INVERSE   5    ORDER   2        NO.   6 INVERSE   6    ORDER   2
    0.000  -1.000   0.000     0.000         0.000   1.000   0.000     0.000
   -1.000   0.000   0.000     0.000         1.000   0.000   0.000     0.000
    0.000   0.000  -1.000     0.000         0.000   0.000  -1.000     0.000
             OPERATION C(   2)                       OPERATION C(   2)
 DETERMINANT 1.; ROTATION(DEG) 180.      DETERMINANT 1.; ROTATION(DEG) 180.
 TRANSLA (  0.000    0.000    0.000)     TRANSLA (  0.000    0.000    0.000)
 uvw/hkl (  2.000   -2.000    0.000)     uvw/hkl ( -2.000   -2.000    0.000)
 LOCATED (  0.000    0.000    0.000)     LOCATED (  0.000    0.000    0.000)

   NO.   7 INVERSE   8    ORDER   4        NO.   8 INVERSE   7    ORDER   4
    0.000   1.000   0.000     0.000         0.000  -1.000   0.000     0.000
   -1.000   0.000   0.000     0.000         1.000   0.000   0.000     0.000
    0.000   0.000   1.000     0.000         0.000   0.000   1.000     0.000
             OPERATION C(   4)                       OPERATION C(   4)
 DETERMINANT 1.; ROTATION(DEG)  90.      DETERMINANT 1.; ROTATION(DEG)  90.
 TRANSLA (  0.000    0.000    0.000)     TRANSLA (  0.000    0.000    0.000)
 uvw/hkl (  0.000    0.000    2.000)     uvw/hkl (  0.000    0.000    2.000)
 LOCATED (  0.000    0.000    0.000)     LOCATED (  0.000    0.000    0.000)

   NO.   9 INVERSE   9    ORDER   2        NO.  10 INVERSE  10    ORDER   2
   -1.000   0.000   0.000     0.000         1.000   0.000   0.000     0.000
    0.000  -1.000   0.000     0.000         0.000   1.000   0.000     0.000
    0.000   0.000  -1.000     0.000         0.000   0.000  -1.000     0.000
             OPERATION I(   2)                       OPERATION M(   2)
 DETERMINANT-1.; ROTATION(DEG) 180.      DETERMINANT-1.; ROTATION(DEG)   0.
 TRANSLA (  0.000    0.000    0.000)     TRANSLA (  0.000    0.000    0.000)
 uvw/hkl (  0.000    0.000    0.000)     uvw/hkl (  0.000    0.000   -2.000)
 LOCATED (  0.000    0.000    0.000)     LOCATED (  0.000    0.000    0.000)

   NO.  11 INVERSE  11    ORDER   2        NO.  12 INVERSE  12    ORDER   2
   -1.000   0.000   0.000     0.000         1.000   0.000   0.000     0.000
    0.000   1.000   0.000     0.000         0.000  -1.000   0.000     0.000
    0.000   0.000   1.000     0.000         0.000   0.000   1.000     0.000
             OPERATION M(   2)                       OPERATION M(   2)
 DETERMINANT-1.; ROTATION(DEG)   0.      DETERMINANT-1.; ROTATION(DEG)   0.
 TRANSLA (  0.000    0.000    0.000)     TRANSLA (  0.000    0.000    0.000)
 uvw/hkl (  2.000    0.000    0.000)     uvw/hkl (  0.000   -2.000    0.000)
 LOCATED (  0.000    0.000    0.000)     LOCATED (  0.000    0.000    0.000)

   NO.  13 INVERSE  13    ORDER   2        NO.  14 INVERSE  14    ORDER   2
    0.000   1.000   0.000     0.000         0.000  -1.000   0.000     0.000
    1.000   0.000   0.000     0.000        -1.000   0.000   0.000     0.000
    0.000   0.000   1.000     0.000         0.000   0.000   1.000     0.000
             OPERATION M(   2)                       OPERATION M(   2)
 DETERMINANT-1.; ROTATION(DEG)   0.      DETERMINANT-1.; ROTATION(DEG)   0.
 TRANSLA (  0.000    0.000    0.000)     TRANSLA (  0.000    0.000    0.000)
 uvw/hkl (  1.000   -1.000    0.000)     uvw/hkl (  1.000    1.000    0.000)
 LOCATED (  0.000    0.000    0.000)     LOCATED (  0.000    0.000    0.000)

   NO.  15 INVERSE  16    ORDER   4        NO.  16 INVERSE  15    ORDER   4
    0.000  -1.000   0.000     0.000         0.000   1.000   0.000     0.000
    1.000   0.000   0.000     0.000        -1.000   0.000   0.000     0.000
    0.000   0.000  -1.000     0.000         0.000   0.000  -1.000     0.000
             OPERATION S(   4)                       OPERATION S(   4)
 DETERMINANT-1.; ROTATION(DEG)  90.      DETERMINANT-1.; ROTATION(DEG)  90.
 TRANSLA (  0.000    0.000    0.000)     TRANSLA (  0.000    0.000    0.000)
 uvw/hkl (  0.000    0.000    2.000)     uvw/hkl (  0.000    0.000    2.000)
 LOCATED (  0.000    0.000    0.000)     LOCATED (  0.000    0.000    0.000)
 SSSSSSSSSSSSSSSSSSSSSSSSSSSSSSSSSSSSSSSSSSSSSSSSSSSSSSSSSSSSSSSSSSSSSSSSSSSSSS
 REDUCTION OF SYMMETRY - ATOMIC LABELS SET TO (ATOM, AT. N., LABEL)
   1(229) 1;   2(229) 2;   3(229) 3;   4(229) 4;   5(229) 5;   6(229) 6;
   7(229) 7;   8(229) 8;   9(208) 0;  10(208) 0;  11(208) 0;  12(208) 0;
  13(208) 0;  14(208) 0;  15(208) 0;  16(208) 0;  17(208) 0;  18(208) 0;
  19(208) 0;  20(208) 0;  21(208) 0;  22(208) 0;  23(208) 0;  24(208) 0;
  25(238) 0;  26(238) 0;  27(238) 0;  28(238) 0;  29(238) 0;  30(238) 0;
  31(238) 0;  32(238) 0;
 THE NUMBER OF SYMMETRY OPERATORS HAS BEEN REDUCED FROM 16 TO  2
 *******************************************************************************

 GCALCO - MAX INDICES DIRECT LATTICE VECTOR     9     9    32
 NO.OF VECTORS CREATED 6999 STARS  569 RMAX   168.68580 BOHR

 GEOMETRY FOR WAVE FUNCTION - DIMENSIONALITY OF THE SYSTEM    3
 (NON PERIODIC DIRECTION: LATTICE PARAMETER FORMALLY SET TO 500)
 *******************************************************************************
 LATTICE PARAMETERS (ANGSTROMS AND DEGREES) - BOHR = 0.5291772083 ANGSTROM
 PRIMITIVE CELL - CENTRING CODE 1/1 VOLUME=   423.813486 - DENSITY  5.731 g/cm^3
         A              B              C           ALPHA      BETA       GAMMA 
    11.10963748    11.10963748     3.43380000    90.000000  90.000000  90.000000
 *******************************************************************************
 ATOMS IN THE ASYMMETRIC UNIT   32 - ATOMS IN THE UNIT CELL:   32
     ATOM                 X/A                 Y/B                 Z/C    
 *******************************************************************************
      1 T 229 CU   -2.500000000000E-01 -5.000000000000E-01  0.000000000000E+00
      2 T 229 CU   -5.000000000000E-01  2.500000000000E-01  0.000000000000E+00
      3 T 229 CU    2.500000000000E-01  0.000000000000E+00  0.000000000000E+00
      4 T 229 CU    0.000000000000E+00 -2.500000000000E-01  0.000000000000E+00
      5 T 229 CU   -5.000000000000E-01 -2.500000000000E-01  0.000000000000E+00
      6 T 229 CU    2.500000000000E-01 -5.000000000000E-01  0.000000000000E+00
      7 T 229 CU    0.000000000000E+00  2.500000000000E-01  0.000000000000E+00
      8 T 229 CU   -2.500000000000E-01  0.000000000000E+00  0.000000000000E+00
      9 T 208 O    -3.750000000000E-01 -3.750000000000E-01  0.000000000000E+00
     10 T 208 O     3.750000000000E-01  3.750000000000E-01  0.000000000000E+00
     11 T 208 O     1.250000000000E-01  1.250000000000E-01  0.000000000000E+00
     12 T 208 O    -1.250000000000E-01 -1.250000000000E-01  0.000000000000E+00
     13 T 208 O     3.750000000000E-01 -1.250000000000E-01  0.000000000000E+00
     14 T 208 O     1.250000000000E-01 -3.750000000000E-01  0.000000000000E+00
     15 T 208 O    -1.250000000000E-01  3.750000000000E-01  0.000000000000E+00
     16 T 208 O    -3.750000000000E-01  1.250000000000E-01  0.000000000000E+00
     17 T 208 O    -3.750000000000E-01  3.750000000000E-01  0.000000000000E+00
     18 T 208 O     3.750000000000E-01  1.250000000000E-01  0.000000000000E+00
     19 T 208 O     1.250000000000E-01 -1.250000000000E-01  0.000000000000E+00
     20 T 208 O    -1.250000000000E-01 -3.750000000000E-01  0.000000000000E+00
     21 T 208 O     3.750000000000E-01 -3.750000000000E-01  0.000000000000E+00
     22 T 208 O     1.250000000000E-01  3.750000000000E-01  0.000000000000E+00
     23 T 208 O    -1.250000000000E-01  1.250000000000E-01  0.000000000000E+00
     24 T 208 O    -3.750000000000E-01 -1.250000000000E-01  0.000000000000E+00
     25 T 238 SR   -5.000000000000E-01 -5.000000000000E-01  5.000000000000E-01
     26 T 238 SR    2.500000000000E-01  2.500000000000E-01  5.000000000000E-01
     27 T 238 SR    0.000000000000E+00  0.000000000000E+00  5.000000000000E-01
     28 T 238 SR   -2.500000000000E-01 -2.500000000000E-01  5.000000000000E-01
     29 T 238 SR    2.500000000000E-01 -2.500000000000E-01  5.000000000000E-01
     30 T 238 SR    0.000000000000E+00 -5.000000000000E-01  5.000000000000E-01
     31 T 238 SR   -2.500000000000E-01  2.500000000000E-01  5.000000000000E-01
     32 T 238 SR   -5.000000000000E-01  0.000000000000E+00  5.000000000000E-01

 T = ATOM BELONGING TO THE ASYMMETRIC UNIT

 ****    2 SYMMOPS - TRANSLATORS IN FRACTIONAL UNITS
 **** MATRICES AND TRANSLATORS IN THE CRYSTALLOGRAPHIC REFERENCE FRAME
   V INV                    ROTATION MATRICES                   TRANSLATORS
   1   1  1.00  0.00  0.00  0.00  1.00  0.00  0.00  0.00  1.00  0.00  0.00  0.00
   2   2  1.00 -0.00  0.00 -0.00  1.00  0.00  0.00  0.00 -1.00  0.00  0.00  0.00

 DIRECT LATTICE VECTORS CARTESIAN COMPONENTS (ANGSTROM)
          X                    Y                    Z
  -0.785570000000E+01  -0.785570000000E+01   0.000000000000E+00
   0.785570000000E+01  -0.785570000000E+01   0.000000000000E+00
   0.000000000000E+00   0.000000000000E+00   0.343380000000E+01


 CARTESIAN COORDINATES - PRIMITIVE CELL
 *******************************************************************************
 *      ATOM          X(ANGSTROM)         Y(ANGSTROM)         Z(ANGSTROM)
 *******************************************************************************
    1   229 CU    5.891775000000E+00 -1.963925000000E+00  0.000000000000E+00
    2   229 CU   -1.963925000000E+00 -5.891775000000E+00  0.000000000000E+00
    3   229 CU   -1.963925000000E+00 -1.963925000000E+00  0.000000000000E+00
    4   229 CU   -1.963925000000E+00  1.963925000000E+00  0.000000000000E+00
    5   229 CU   -5.891775000000E+00 -1.963925000000E+00  0.000000000000E+00
    6   229 CU    1.963925000000E+00 -5.891775000000E+00  0.000000000000E+00
    7   229 CU    1.963925000000E+00 -1.963925000000E+00  0.000000000000E+00
    8   229 CU    1.963925000000E+00  1.963925000000E+00  0.000000000000E+00
    9   208 O    -9.400075532184E-16  5.891775000000E+00  0.000000000000E+00
   10   208 O    -9.400075532184E-16 -5.891775000000E+00  0.000000000000E+00
   11   208 O     0.000000000000E+00 -1.963925000000E+00  0.000000000000E+00
   12   208 O     4.700037766092E-16  1.963925000000E+00  0.000000000000E+00
   13   208 O    -3.927850000000E+00 -1.963925000000E+00  0.000000000000E+00
   14   208 O    -3.927850000000E+00  1.963925000000E+00  0.000000000000E+00
   15   208 O     3.927850000000E+00 -1.963925000000E+00  0.000000000000E+00
   16   208 O     3.927850000000E+00  1.963925000000E+00  0.000000000000E+00
   17   208 O     5.891775000000E+00  9.400075532184E-16  0.000000000000E+00
   18   208 O    -1.963925000000E+00 -3.927850000000E+00  0.000000000000E+00
   19   208 O    -1.963925000000E+00  0.000000000000E+00  0.000000000000E+00
   20   208 O    -1.963925000000E+00  3.927850000000E+00  0.000000000000E+00
   21   208 O    -5.891775000000E+00  1.880015106437E-15  0.000000000000E+00
   22   208 O     1.963925000000E+00 -3.927850000000E+00  0.000000000000E+00
   23   208 O     1.963925000000E+00  4.700037766092E-16  0.000000000000E+00
   24   208 O     1.963925000000E+00  3.927850000000E+00  0.000000000000E+00
   25   238 SR    0.000000000000E+00 -7.855700000000E+00  1.716900000000E+00
   26   238 SR    0.000000000000E+00 -3.927850000000E+00  1.716900000000E+00
   27   238 SR    0.000000000000E+00  0.000000000000E+00  1.716900000000E+00
   28   238 SR    4.700037766092E-16  3.927850000000E+00  1.716900000000E+00
   29   238 SR   -3.927850000000E+00  1.645013218132E-15  1.716900000000E+00
   30   238 SR    3.927850000000E+00 -3.927850000000E+00  1.716900000000E+00
   31   238 SR    3.927850000000E+00  4.700037766092E-16  1.716900000000E+00
   32   238 SR   -3.927850000000E+00 -3.927850000000E+00  1.716900000000E+00

 *******************************************************************************
 *** PSEUDOPOTENTIAL INFORMATION ***
 *******************************************************************************

 ATOMIC NUMBER  29, NUCLEAR CHARGE 19.000, GIVEN IN INPUT       PSEUDOPOTENTIAL
   TYPE       EXPONENT      COEFF.    N      EXPONENT      COEFF.    N
  W0 TMS     6.2514963   19.0000000  -1     6.7272533  118.7784294   1
             6.6102459 -105.8998240   0
  P0 TMS    12.3656871  127.3506942   0
  P1 TMS    11.1607294   71.2298490   0

 ATOMIC NUMBER   8, NUCLEAR CHARGE  6.000, GIVEN IN INPUT       PSEUDOPOTENTIAL
   TYPE       EXPONENT      COEFF.    N      EXPONENT      COEFF.    N
  W0 TMS     9.2979390    6.0000000  -1     8.8649220   55.7876342   1
             8.6292567  -38.8197850   0
  P0 TMS     8.7192445   38.4191413   0

 ATOMIC NUMBER  38, NUCLEAR CHARGE  2.000, GIVEN IN INPUT       PSEUDOPOTENTIAL
   TYPE       EXPONENT      COEFF.    N      EXPONENT      COEFF.    N
  W0 TMS     4.3839388    2.0000000  -1     3.1964983    8.7678775   1
             0.9899150  -14.2552431   0
  P0 TMS     1.2868349  146.8716052   0
  P1 TMS     0.9567448  140.0262284   0
  P2 TMS     1.9483165   24.4454878   0
 INFORMATION **** CHARGED ****  CHARGED CELL - NO TOTAL ENERGY

 NUCLEAR CHARGE  2.640E+02 CHARGE ON SHELLS  2.660E+02
 WARNING **** INPBAS **** UNIT CELL NOT NEUTRAL

 *******************************************************************************
 LOCAL ATOMIC FUNCTIONS BASIS SET
 *******************************************************************************
   ATOM   X(AU)   Y(AU)   Z(AU)  N. TYPE  EXPONENT  S COEF   P COEF   D/F/G COEF
 *******************************************************************************
   1 CU  11.134  -3.711   0.000
                                  1 S  
                                         2.000E-01 2.869E-02 0.000E+00 0.000E+00
                                         4.000E-01-3.644E-02 0.000E+00 0.000E+00
                                         8.000E-01 3.588E-01 0.000E+00 0.000E+00
                                         1.600E+00 4.743E-01 0.000E+00 0.000E+00
                                         3.200E+00 4.984E-01 0.000E+00 0.000E+00
                                         6.400E+00-2.701E-01 0.000E+00 0.000E+00
                                         1.280E+01-1.921E-01 0.000E+00 0.000E+00
                                         2.560E+01 6.296E-02 0.000E+00 0.000E+00
                                         5.120E+01-8.536E-03 0.000E+00 0.000E+00
                                         1.024E+02 8.122E-04 0.000E+00 0.000E+00
                                  2 S  
                                         2.000E-01 2.202E+00 0.000E+00 0.000E+00
                                         4.000E-01-2.282E+00 0.000E+00 0.000E+00
                                         8.000E-01 1.463E+00 0.000E+00 0.000E+00
                                         1.600E+00-1.100E+00 0.000E+00 0.000E+00
                                         3.200E+00 2.968E-01 0.000E+00 0.000E+00
                                         6.400E+00-1.215E-01 0.000E+00 0.000E+00
                                         1.280E+01 1.179E-01 0.000E+00 0.000E+00
                                         2.560E+01-3.414E-02 0.000E+00 0.000E+00
                                         5.120E+01 5.951E-03 0.000E+00 0.000E+00
                                         1.024E+02-7.152E-04 0.000E+00 0.000E+00
                           3-     5 P  
                                         1.859E+01 0.000E+00 3.652E-03 0.000E+00
                                         1.430E+01 0.000E+00-3.708E-02 0.000E+00
                                         5.631E+00 0.000E+00 2.171E-01 0.000E+00
                                         2.683E+00 0.000E+00 4.410E-01 0.000E+00
                                         1.259E+00 0.000E+00 3.587E-01 0.000E+00
                                         5.741E-01 0.000E+00 1.148E-01 0.000E+00
                                         2.092E-01 0.000E+00 7.316E-03 0.000E+00
                           6-    10 D  
                                         2.000E-01 0.000E+00 0.000E+00 2.793E-01
                                         4.000E-01 0.000E+00 0.000E+00-1.172E-01
                                         8.000E-01 0.000E+00 0.000E+00 4.205E-01
                                         1.600E+00 0.000E+00 0.000E+00 1.666E-01
                                         3.200E+00 0.000E+00 0.000E+00 3.152E-01
                                         6.400E+00 0.000E+00 0.000E+00 2.011E-01
                                         1.280E+01 0.000E+00 0.000E+00 1.280E-01
                                         2.560E+01 0.000E+00 0.000E+00 8.945E-03
                                         5.120E+01 0.000E+00 0.000E+00-5.173E-04
                                         1.024E+02 0.000E+00 0.000E+00 2.473E-05
                          11-    17 F  
                                         1.692E+00 0.000E+00 0.000E+00 1.000E+00
                                 18 S  
                                         2.000E-01 1.000E+00 0.000E+00 0.000E+00
                                 19 S  
                                         6.000E-01 1.000E+00 0.000E+00 0.000E+00
                          20-    22 P  
                                         2.000E-01 0.000E+00 1.000E+00 0.000E+00
                          23-    25 P  
                                         6.000E-01 0.000E+00 1.000E+00 0.000E+00
                          26-    30 D  
                                         2.000E-01 0.000E+00 0.000E+00 1.000E+00
                          31-    35 D  
                                         6.000E-01 0.000E+00 0.000E+00 1.000E+00
   2 CU  -3.711 -11.134   0.000
   3 CU  -3.711  -3.711   0.000
   4 CU  -3.711   3.711   0.000
   5 CU -11.134  -3.711   0.000
   6 CU   3.711 -11.134   0.000
   7 CU   3.711  -3.711   0.000
   8 CU   3.711   3.711   0.000
   9 O   -0.000  11.134   0.000
                                281 S  
                                         2.000E-01 2.154E-01 0.000E+00 0.000E+00
                                         4.000E-01 3.519E-01 0.000E+00 0.000E+00
                                         8.000E-01 3.951E-01 0.000E+00 0.000E+00
                                         1.600E+00 1.795E-01 0.000E+00 0.000E+00
                                         3.200E+00-4.321E-02 0.000E+00 0.000E+00
                                         6.400E+00-1.052E-01 0.000E+00 0.000E+00
                                         1.280E+01 1.978E-02 0.000E+00 0.000E+00
                                         2.560E+01-1.974E-03 0.000E+00 0.000E+00
                                         5.120E+01 3.878E-04 0.000E+00 0.000E+00
                                         1.024E+02-5.576E-05 0.000E+00 0.000E+00
                         282-   284 P  
                                         2.000E-01 0.000E+00 2.831E-01 0.000E+00
                                         4.000E-01 0.000E+00 2.058E-01 0.000E+00
                                         8.000E-01 0.000E+00 3.032E-01 0.000E+00
                                         1.600E+00 0.000E+00 2.188E-01 0.000E+00
                                         3.200E+00 0.000E+00 1.362E-01 0.000E+00
                                         6.400E+00 0.000E+00 7.101E-02 0.000E+00
                                         1.280E+01 0.000E+00 2.742E-02 0.000E+00
                                         2.560E+01 0.000E+00 1.611E-03 0.000E+00
                                         5.120E+01 0.000E+00 1.514E-05 0.000E+00
                                         1.024E+02 0.000E+00-2.817E-06 0.000E+00
                         285-   289 D  
                                         6.693E-01 0.000E+00 0.000E+00 1.000E+00
                         290-   296 F  
                                         1.423E+00 0.000E+00 0.000E+00 1.000E+00
                                297 S  
                                         2.000E-01 1.000E+00 0.000E+00 0.000E+00
                                298 S  
                                         6.000E-01 1.000E+00 0.000E+00 0.000E+00
                         299-   301 P  
                                         2.000E-01 0.000E+00 1.000E+00 0.000E+00
                         302-   304 P  
                                         6.000E-01 0.000E+00 1.000E+00 0.000E+00
  10 O   -0.000 -11.134   0.000
  11 O    0.000  -3.711   0.000
  12 O    0.000   3.711   0.000
  13 O   -7.423  -3.711   0.000
  14 O   -7.423   3.711   0.000
  15 O    7.423  -3.711   0.000
  16 O    7.423   3.711   0.000
  17 O   11.134   0.000   0.000
  18 O   -3.711  -7.423   0.000
  19 O   -3.711   0.000   0.000
  20 O   -3.711   7.423   0.000
  21 O  -11.134   0.000   0.000
  22 O    3.711  -7.423   0.000
  23 O    3.711   0.000   0.000
  24 O    3.711   7.423   0.000
  25 SR   0.000 -14.845   3.244
                                665 S  
                                         2.000E-01 6.885E-01 0.000E+00 0.000E+00
                                         4.000E-01-1.121E+00 0.000E+00 0.000E+00
                                         8.000E-01 6.678E-01 0.000E+00 0.000E+00
                                         1.600E+00-2.643E-01 0.000E+00 0.000E+00
                                         3.200E+00 1.079E-01 0.000E+00 0.000E+00
                                         6.400E+00-4.671E-02 0.000E+00 0.000E+00
                                         1.280E+01 1.904E-02 0.000E+00 0.000E+00
                                         2.560E+01-6.568E-03 0.000E+00 0.000E+00
                                         5.120E+01 1.555E-03 0.000E+00 0.000E+00
                                         1.024E+02-1.928E-04 0.000E+00 0.000E+00
                         666-   668 P  
                                         2.000E-01 0.000E+00 3.164E-01 0.000E+00
                                         4.000E-01 0.000E+00-4.659E-01 0.000E+00
                                         8.000E-01 0.000E+00 2.270E-01 0.000E+00
                                         1.600E+00 0.000E+00-6.609E-02 0.000E+00
                                         3.200E+00 0.000E+00 1.630E-02 0.000E+00
                                         6.400E+00 0.000E+00-3.651E-03 0.000E+00
                                         1.280E+01 0.000E+00 7.054E-04 0.000E+00
                                         2.560E+01 0.000E+00-1.785E-04 0.000E+00
                                         5.120E+01 0.000E+00 3.065E-05 0.000E+00
                                         1.024E+02 0.000E+00-2.716E-06 0.000E+00
                         669-   673 D  
                                         1.198E-01 0.000E+00 0.000E+00 1.000E+00
                         674-   680 F  
                                         1.645E-01 0.000E+00 0.000E+00 1.000E+00
                                681 S  
                                         2.000E-01 1.000E+00 0.000E+00 0.000E+00
                                682 S  
                                         6.000E-01 1.000E+00 0.000E+00 0.000E+00
                         683-   685 P  
                                         2.000E-01 0.000E+00 1.000E+00 0.000E+00
                         686-   688 P  
                                         6.000E-01 0.000E+00 1.000E+00 0.000E+00
  26 SR   0.000  -7.423   3.244
  27 SR   0.000   0.000   3.244
  28 SR   0.000   7.423   3.244
  29 SR  -7.423   0.000   3.244
  30 SR   7.423  -7.423   3.244
  31 SR   7.423   0.000   3.244
  32 SR  -7.423  -7.423   3.244
 INFORMATION **** SET_MPP **** PCRYSTAL CALCULATION
 INFORMATION **** READM2 **** NEW DEFAULT: FOCK/KS MATRIX MIXING SET TO 30 %
 INFORMATION **** READM2 **** NEW DEFAULT: FULL DIRECT SCF MODE
 INFORMATION **** READM2 **** NEW DEFAULT: COULOMB BIPOLAR BUFFER SET TO 32 Mb
 INFORMATION **** READM2 **** NEW DEFAULT: EXCHANGE BIPOLAR BUFFER SET TO 32 Mb

 *******************************************************************************
 NEW DEFAULT: DFT INTEGRATION GRID INCREASED TO XLGRID
 NEW DEFAULT: DIIS ACCELERATOR ACTIVE
 USE KEYWORD NODIIS TO TURN IT OFF
 *******************************************************************************

 INFORMATION **** READM2 **** FULL DIRECT SCF (MONO AND BIEL INT) SELECTED
 INFORMATION **** BIPOSIZE **** COULOMB BIPOLAR BUFFER SET TO   100000000
 INFORMATION **** EXCHSIZE **** EXCHANGE BIPOLAR BUFFER SIZE SET TO    10000000
 INFORMATION **** TOLDEE **** SCF TOL ON TOTAL ENERGY SET TO           9
 INFORMATION **** TOLINTEG **** COULOMB AND EXCHANGE SERIES TOLERANCES MODIFIED
 INFORMATION **** MAXCYCLE **** MAX NUMBER OF SCF CYCLES SET TO         200
 INFORMATION **** SMEAR **** FERMI SMEARING ACTIVE
 FERMI SMEARING - TEMPERATURE SMEARING OF FERMI SURFACE  0.1000E-12
 INFORMATION **** SPINLOCK **** LOCK IN A GIVEN SPIN STATE
 ALPHA-BETA ELECTRONS LOCKED TO   2 FOR 200 SCF CYCLES
 SSSSSSSSSSSSSSSSSSSSSSSSSSSSSSSSSSSSSSSSSSSSSSSSSSSSSSSSSSSSSSSSSSSSSSSSSSSSSS
 ATOMIC SPINS SET TO (ATOM, AT. N., SPIN)
   1 229 1   2 229 1   3 229-1   4 229 1   5 229 1   6 229 1   7 229 1   8 229-1
   9 208 0  10 208 0  11 208 0  12 208 0  13 208 0  14 208 0  15 208 0  16 208 0
  17 208 0  18 208 0  19 208 0  20 208 0  21 208 0  22 208 0  23 208 0  24 208 0
  25 238 0  26 238 0  27 238 0  28 238 0  29 238 0  30 238 0  31 238 0  32 238 0
 INFORMATION **** SAVEWF **** not fully tested
 *******************************************************************************
 N. OF ATOMS PER CELL        32  COULOMB OVERLAP TOL         (T1) 10**   -8
 NUMBER OF SHELLS           280  COULOMB PENETRATION TOL     (T2) 10**   -8
 NUMBER OF AO               856  EXCHANGE OVERLAP TOL        (T3) 10**   -8
 N. OF ELECTRONS PER CELL   266  EXCHANGE PSEUDO OVP (F(G))  (T4) 10**   -8
 CORE ELECTRONS PER CELL      0  EXCHANGE PSEUDO OVP (P(G))  (T5) 10**  -16
 N. OF SYMMETRY OPERATORS     2  POLE ORDER IN MONO ZONE                  4
 *******************************************************************************
 TYPE OF CALCULATION :  UNRESTRICTED OPEN SHELL
 KOHN-SHAM HAMILTONIAN

 (EXCHANGE)[CORRELATION] FUNCTIONAL:(PERDEW-BURKE-ERNZERHOF)[PERDEW-BURKE-ERNZERHOF]


 HYBRID EXCHANGE - PERCENTAGE OF FOCK EXCHANGE    25.0000

 SPIN POLARIZED DFT SELECTED
 CORE  PSEUDO POTENTIAL         TOL. ON PSEUDO              (TP) 10**- 6
 SPIN POLARIZATION - ALPHA-BETA =  2 FOR 200 CYCLES

 CAPPA:IS1  5;IS2  5;IS3  4; K PTS MONK NET  39; SYMMOPS:K SPACE   4;G SPACE   2

 *******************************************************************************
 MAX NUMBER OF SCF CYCLES     200  CONVERGENCE ON DELTAP        10**-19
 WEIGHT OF F(I) IN F(I+1)      30% CONVERGENCE ON ENERGY        10**- 9
 SPIN POLARIZATION - ALPHA-BETA =  2 FOR 200 CYCLES
 SHRINK. FACT.(MONKH.)    5  5  4  NUMBER OF K POINTS IN THE IBZ     39
 SHRINKING FACTOR(GILAT NET)   10  NUMBER OF K POINTS(GILAT NET)    260
 *******************************************************************************
 *** K POINTS COORDINATES (OBLIQUE COORDINATES IN UNITS OF IS =  5)
   1-R(  0  0  0)   2-C(  1  0  0)   3-C(  2  0  0)   4-C(  0  1  0)
   5-C(  1  1  0)   6-C(  2  1  0)   7-C(  3  1  0)   8-C(  4  1  0)
   9-C(  0  2  0)  10-C(  1  2  0)  11-C(  2  2  0)  12-C(  3  2  0)
  13-C(  4  2  0)  14-C(  0  0  1)  15-C(  1  0  1)  16-C(  2  0  1)
  17-C(  0  1  1)  18-C(  1  1  1)  19-C(  2  1  1)  20-C(  3  1  1)
  21-C(  4  1  1)  22-C(  0  2  1)  23-C(  1  2  1)  24-C(  2  2  1)
  25-C(  3  2  1)  26-C(  4  2  1)  27-R(  0  0  2)  28-C(  1  0  2)
  29-C(  2  0  2)  30-C(  0  1  2)  31-C(  1  1  2)  32-C(  2  1  2)
  33-C(  3  1  2)  34-C(  4  1  2)  35-C(  0  2  2)  36-C(  1  2  2)
  37-C(  2  2  2)  38-C(  3  2  2)  39-C(  4  2  2)

 DIRECT LATTICE VECTORS COMPON. (A.U.)     RECIP. LATTICE VECTORS COMPON. (A.U.) 
        X            Y            Z              X            Y            Z
  -14.8451216  -14.8451216    0.0000000     -0.2116246   -0.2116246    0.0000000
   14.8451216  -14.8451216    0.0000000      0.2116246   -0.2116246    0.0000000
    0.0000000    0.0000000    6.4889416      0.0000000    0.0000000    0.9682912

 DISK SPACE FOR EIGENVECTORS (FTN 10)    55687936 REALS

 SYMMETRY ADAPTION OF THE BLOCH FUNCTIONS ENABLED
 TTTTTTTTTTTTTTTTTTTTTTTTTTTTTT gordsh1     TELAPSE        2.42 TCPU        0.10

 MATRIX SIZE: P(G) 4556392, F(G)  814192, P(G) IRR 1334224, F(G) IRR  500744
 MAX G-VECTOR INDEX FOR 1- AND 2-ELECTRON INTEGRALS  75

 TTTTTTTTTTTTTTTTTTTTTTTTTTTTTT INPUT       TELAPSE        2.79 TCPU        0.47

 NEIGHBORS OF THE NON-EQUIVALENT ATOMS

 N = NUMBER OF NEIGHBORS AT DISTANCE R
    ATOM  N     R/ANG      R/AU   NEIGHBORS (ATOM LABELS AND CELL INDICES)
   1 CU   4     1.9639     3.7113    9 O    0 1 0   15 O    0 0 0   17 O    0 0 0
                                    20 O    0 1 0
   1 CU   8     3.2652     6.1704   25 SR  -1 0 0   25 SR  -1 0-1   28 SR   0 1 0
                                    28 SR   0 1-1   30 SR   0 0 0   30 SR   0 0-1
                                    31 SR   0 0 0   31 SR   0 0-1
   1 CU   2     3.4338     6.4889    1 CU   0 0-1    1 CU   0 0 1
   1 CU   4     3.9278     7.4226    2 CU  -1 0 0    4 CU   0 1 0    5 CU  -1 1 0
                                     7 CU   0 0 0
   1 CU   8     3.9558     7.4753    9 O    0 1 1    9 O    0 1-1   15 O    0 0-1
                                    15 O    0 0 1   17 O    0 0 1   17 O    0 0-1
                                    20 O    0 1 1   20 O    0 1-1
   1 CU   8     4.3915     8.2987   10 O   -1 0 0   12 O    0 1 0   14 O    0 1 0
                                    16 O    0 0 0   21 O   -1 1 0   22 O    0 0 0
                                    23 O    0 0 0   24 O    0 1 0

   2 CU   4     1.9639     3.7113   10 O    0 0 0   16 O    1 0 0   17 O    1 0 0
                                    18 O    0 0 0
   2 CU   8     3.2652     6.1704   25 SR   0 0 0   25 SR   0 0-1   26 SR   0 0 0
                                    26 SR   0 0-1   31 SR   1 0 0   31 SR   1 0-1
                                    32 SR   0 0 0   32 SR   0 0-1
   2 CU   2     3.4338     6.4889    2 CU   0 0-1    2 CU   0 0 1
   2 CU   4     3.9278     7.4226    1 CU   1 0 0    3 CU   0 0 0    6 CU   0 0 0
                                     8 CU   1 0 0
   2 CU   8     3.9558     7.4753   10 O    0 0 1   10 O    0 0-1   16 O    1 0 1
                                    16 O    1 0-1   17 O    1 0 1   17 O    1 0-1
                                    18 O    0 0 1   18 O    0 0-1
   2 CU   8     4.3915     8.2987    9 O    1 1 0   11 O    0 0 0   13 O    0 0 0
                                    15 O    1 0 0   21 O    0 1 0   22 O    0 0 0
                                    23 O    1 0 0   24 O    1 0 0

   3 CU   4     1.9639     3.7113   11 O    0 0 0   13 O    0 0 0   18 O    0 0 0
                                    19 O    0 0 0
   3 CU   8     3.2652     6.1704   26 SR   0 0 0   26 SR   0 0-1   27 SR   0 0 0
                                    27 SR   0 0-1   29 SR   0 0 0   29 SR   0 0-1
                                    32 SR   0 0 0   32 SR   0 0-1
   3 CU   2     3.4338     6.4889    3 CU   0 0-1    3 CU   0 0 1
   3 CU   4     3.9278     7.4226    2 CU   0 0 0    4 CU   0 0 0    5 CU   0 0 0
                                     7 CU   0 0 0
   3 CU   8     3.9558     7.4753   11 O    0 0 1   11 O    0 0-1   13 O    0 0-1
                                    13 O    0 0 1   18 O    0 0-1   18 O    0 0 1
                                    19 O    0 0 1   19 O    0 0-1
   3 CU   8     4.3915     8.2987   10 O    0 0 0   12 O    0 0 0   14 O    0 0 0
                                    16 O    1 0 0   21 O    0 0 0   22 O    0 0 0
                                    23 O    0 0 0   24 O    1 0 0

   4 CU   4     1.9639     3.7113   12 O    0 0 0   14 O    0 0 0   19 O    0 0 0
                                    20 O    0 0 0
   4 CU   8     3.2652     6.1704   27 SR   0 0 0   27 SR   0 0-1   28 SR   0 0 0
                                    28 SR   0 0-1   29 SR   0 0 0   29 SR   0 0-1
                                    30 SR   0-1 0   30 SR   0-1-1
   4 CU   2     3.4338     6.4889    4 CU   0 0-1    4 CU   0 0 1
   4 CU   4     3.9279     7.4226    1 CU   0-1 0    3 CU   0 0 0    6 CU   0-1 0
                                     8 CU   0 0 0
   4 CU   8     3.9558     7.4753   12 O    0 0 1   12 O    0 0-1   14 O    0 0-1
                                    14 O    0 0 1   19 O    0 0-1   19 O    0 0 1
                                    20 O    0 0 1   20 O    0 0-1
   4 CU   8     4.3915     8.2987    9 O    0 0 0   11 O    0 0 0   13 O    0 0 0
                                    15 O    0-1 0   21 O    0 0 0   22 O    0-1 0
                                    23 O    0 0 0   24 O    0 0 0

   5 CU   4     1.9639     3.7113    9 O    1 0 0   13 O    0 0 0   21 O    0 0 0
                                    24 O    1 0 0
   5 CU   8     3.2652     6.1704   25 SR   0-1 0   25 SR   0-1-1   28 SR   1 0 0
                                    28 SR   1 0-1   29 SR   0 0 0   29 SR   0 0-1
                                    32 SR   0 0 0   32 SR   0 0-1
   5 CU   2     3.4338     6.4889    5 CU   0 0-1    5 CU   0 0 1
   5 CU   4     3.9278     7.4226    1 CU   1-1 0    3 CU   0 0 0    6 CU   0-1 0
                                     8 CU   1 0 0
   5 CU   8     3.9558     7.4753    9 O    1 0 1    9 O    1 0-1   13 O    0 0 1
                                    13 O    0 0-1   21 O    0 0 1   21 O    0 0-1
                                    24 O    1 0 1   24 O    1 0-1
   5 CU   8     4.3915     8.2987   10 O    0-1 0   12 O    1 0 0   14 O    0 0 0
                                    16 O    1 0 0   17 O    1-1 0   18 O    0 0 0
                                    19 O    0 0 0   20 O    1 0 0

   6 CU   4     1.9639     3.7113   10 O    0 0 0   14 O    0 1 0   21 O    0 1 0
                                    22 O    0 0 0
   6 CU   8     3.2652     6.1704   25 SR   0 0 0   25 SR   0 0-1   26 SR   0 0 0
                                    26 SR   0 0-1   29 SR   0 1 0   29 SR   0 1-1
                                    30 SR   0 0 0   30 SR   0 0-1
   6 CU   2     3.4338     6.4889    6 CU   0 0-1    6 CU   0 0 1
   6 CU   4     3.9279     7.4226    2 CU   0 0 0    4 CU   0 1 0    5 CU   0 1 0
                                     7 CU   0 0 0
   6 CU   8     3.9558     7.4753   10 O    0 0-1   10 O    0 0 1   14 O    0 1 1
                                    14 O    0 1-1   21 O    0 1 1   21 O    0 1-1
                                    22 O    0 0 1   22 O    0 0-1
   6 CU   8     4.3915     8.2987    9 O    1 1 0   11 O    0 0 0   13 O    0 1 0
                                    15 O    0 0 0   17 O    1 0 0   18 O    0 0 0
                                    19 O    0 1 0   20 O    0 1 0

   7 CU   4     1.9639     3.7113   11 O    0 0 0   15 O    0 0 0   22 O    0 0 0
                                    23 O    0 0 0
   7 CU   8     3.2652     6.1704   26 SR   0 0 0   26 SR   0 0-1   27 SR   0 0 0
                                    27 SR   0 0-1   30 SR   0 0 0   30 SR   0 0-1
                                    31 SR   0 0 0   31 SR   0 0-1
   7 CU   2     3.4338     6.4889    7 CU   0 0-1    7 CU   0 0 1
   7 CU   4     3.9279     7.4226    1 CU   0 0 0    3 CU   0 0 0    6 CU   0 0 0
                                     8 CU   0 0 0
   7 CU   8     3.9558     7.4753   11 O    0 0-1   11 O    0 0 1   15 O    0 0 1
                                    15 O    0 0-1   22 O    0 0-1   22 O    0 0 1
                                    23 O    0 0 1   23 O    0 0-1
   7 CU   8     4.3915     8.2987   10 O    0 0 0   12 O    0 0 0   14 O    0 1 0
                                    16 O    0 0 0   17 O    0 0 0   18 O    0 0 0
                                    19 O    0 0 0   20 O    0 1 0

   8 CU   4     1.9639     3.7113   12 O    0 0 0   16 O    0 0 0   23 O    0 0 0
                                    24 O    0 0 0
   8 CU   8     3.2652     6.1704   27 SR   0 0 0   27 SR   0 0-1   28 SR   0 0 0
                                    28 SR   0 0-1   31 SR   0 0 0   31 SR   0 0-1
                                    32 SR  -1 0 0   32 SR  -1 0-1
   8 CU   2     3.4338     6.4889    8 CU   0 0-1    8 CU   0 0 1
   8 CU   4     3.9278     7.4226    2 CU  -1 0 0    4 CU   0 0 0    5 CU  -1 0 0
                                     7 CU   0 0 0
   8 CU   8     3.9558     7.4753   12 O    0 0-1   12 O    0 0 1   16 O    0 0 1
                                    16 O    0 0-1   23 O    0 0-1   23 O    0 0 1
                                    24 O    0 0 1   24 O    0 0-1
   8 CU   8     4.3915     8.2987    9 O    0 0 0   11 O    0 0 0   13 O   -1 0 0
                                    15 O    0 0 0   17 O    0 0 0   18 O   -1 0 0
                                    19 O    0 0 0   20 O    0 0 0

   9 O    2     1.9639     3.7113    1 CU   0-1 0    5 CU  -1 0 0
   9 O    4     2.6086     4.9295   25 SR  -1-1 0   25 SR  -1-1-1   28 SR   0 0 0
                                    28 SR   0 0-1
   9 O    4     2.7774     5.2485   17 O    0-1 0   20 O    0 0 0   21 O   -1 0 0
                                    24 O    0 0 0
   9 O    2     3.4338     6.4889    9 O    0 0-1    9 O    0 0 1
   9 O    4     3.9279     7.4226   10 O   -1-1 0   12 O    0 0 0   13 O   -1 0 0
                                    15 O    0-1 0
   9 O    4     3.9558     7.4753    1 CU   0-1-1    1 CU   0-1 1    5 CU  -1 0-1
                                     5 CU  -1 0 1

  10 O    2     1.9639     3.7113    2 CU   0 0 0    6 CU   0 0 0
  10 O    4     2.6086     4.9295   25 SR   0 0 0   25 SR   0 0-1   26 SR   0 0 0
                                    26 SR   0 0-1
  10 O    4     2.7774     5.2485   17 O    1 0 0   18 O    0 0 0   21 O    0 1 0
                                    22 O    0 0 0
  10 O    2     3.4338     6.4889   10 O    0 0-1   10 O    0 0 1
  10 O    4     3.9279     7.4226    9 O    1 1 0   11 O    0 0 0   14 O    0 1 0
                                    16 O    1 0 0
  10 O    4     3.9558     7.4753    2 CU   0 0-1    2 CU   0 0 1    6 CU   0 0 1
                                     6 CU   0 0-1

  11 O    2     1.9639     3.7113    3 CU   0 0 0    7 CU   0 0 0
  11 O    4     2.6086     4.9295   26 SR   0 0 0   26 SR   0 0-1   27 SR   0 0 0
                                    27 SR   0 0-1
  11 O    4     2.7774     5.2485   18 O    0 0 0   19 O    0 0 0   22 O    0 0 0
                                    23 O    0 0 0
  11 O    2     3.4338     6.4889   11 O    0 0-1   11 O    0 0 1
  11 O    4     3.9278     7.4226   10 O    0 0 0   12 O    0 0 0   13 O    0 0 0
                                    15 O    0 0 0
  11 O    4     3.9558     7.4753    3 CU   0 0-1    3 CU   0 0 1    7 CU   0 0 1
                                     7 CU   0 0-1

  12 O    2     1.9639     3.7113    4 CU   0 0 0    8 CU   0 0 0
  12 O    4     2.6086     4.9295   27 SR   0 0 0   27 SR   0 0-1   28 SR   0 0 0
                                    28 SR   0 0-1
  12 O    4     2.7774     5.2485   19 O    0 0 0   20 O    0 0 0   23 O    0 0 0
                                    24 O    0 0 0
  12 O    2     3.4338     6.4889   12 O    0 0-1   12 O    0 0 1
  12 O    4     3.9279     7.4226    9 O    0 0 0   11 O    0 0 0   14 O    0 0 0
                                    16 O    0 0 0
  12 O    4     3.9558     7.4753    4 CU   0 0-1    4 CU   0 0 1    8 CU   0 0 1
                                     8 CU   0 0-1

  13 O    2     1.9639     3.7113    3 CU   0 0 0    5 CU   0 0 0
  13 O    4     2.6086     4.9295   29 SR   0 0 0   29 SR   0 0-1   32 SR   0 0 0
                                    32 SR   0 0-1
  13 O    4     2.7774     5.2485   18 O    0 0 0   19 O    0 0 0   21 O    0 0 0
                                    24 O    1 0 0
  13 O    2     3.4338     6.4889   13 O    0 0-1   13 O    0 0 1
  13 O    4     3.9278     7.4226    9 O    1 0 0   11 O    0 0 0   14 O    0 0 0
                                    16 O    1 0 0
  13 O    4     3.9558     7.4753    3 CU   0 0 1    3 CU   0 0-1    5 CU   0 0-1
                                     5 CU   0 0 1

  14 O    2     1.9639     3.7113    4 CU   0 0 0    6 CU   0-1 0
  14 O    4     2.6086     4.9295   29 SR   0 0 0   29 SR   0 0-1   30 SR   0-1 0
                                    30 SR   0-1-1
  14 O    4     2.7774     5.2485   19 O    0 0 0   20 O    0 0 0   21 O    0 0 0
                                    22 O    0-1 0
  14 O    2     3.4338     6.4889   14 O    0 0-1   14 O    0 0 1
  14 O    4     3.9278     7.4226   10 O    0-1 0   12 O    0 0 0   13 O    0 0 0
                                    15 O    0-1 0
  14 O    4     3.9558     7.4753    4 CU   0 0 1    4 CU   0 0-1    6 CU   0-1-1
                                     6 CU   0-1 1

  15 O    2     1.9639     3.7113    1 CU   0 0 0    7 CU   0 0 0
  15 O    4     2.6086     4.9295   30 SR   0 0 0   30 SR   0 0-1   31 SR   0 0 0
                                    31 SR   0 0-1
  15 O    4     2.7774     5.2485   17 O    0 0 0   20 O    0 1 0   22 O    0 0 0
                                    23 O    0 0 0
  15 O    2     3.4338     6.4889   15 O    0 0-1   15 O    0 0 1
  15 O    4     3.9278     7.4226    9 O    0 1 0   11 O    0 0 0   14 O    0 1 0
                                    16 O    0 0 0
  15 O    4     3.9558     7.4753    1 CU   0 0 1    1 CU   0 0-1    7 CU   0 0-1
                                     7 CU   0 0 1

  16 O    2     1.9639     3.7113    2 CU  -1 0 0    8 CU   0 0 0
  16 O    4     2.6086     4.9295   31 SR   0 0 0   31 SR   0 0-1   32 SR  -1 0 0
                                    32 SR  -1 0-1
  16 O    4     2.7774     5.2485   17 O    0 0 0   18 O   -1 0 0   23 O    0 0 0
                                    24 O    0 0 0
  16 O    2     3.4338     6.4889   16 O    0 0-1   16 O    0 0 1
  16 O    4     3.9278     7.4226   10 O   -1 0 0   12 O    0 0 0   13 O   -1 0 0
                                    15 O    0 0 0
  16 O    4     3.9558     7.4753    2 CU  -1 0-1    2 CU  -1 0 1    8 CU   0 0-1
                                     8 CU   0 0 1

  17 O    2     1.9639     3.7113    1 CU   0 0 0    2 CU  -1 0 0
  17 O    4     2.6086     4.9295   25 SR  -1 0 0   25 SR  -1 0-1   31 SR   0 0 0
                                    31 SR   0 0-1
  17 O    4     2.7774     5.2485    9 O    0 1 0   10 O   -1 0 0   15 O    0 0 0
                                    16 O    0 0 0
  17 O    2     3.4338     6.4889   17 O    0 0-1   17 O    0 0 1
  17 O    4     3.9278     7.4226   18 O   -1 0 0   20 O    0 1 0   21 O   -1 1 0
                                    23 O    0 0 0
  17 O    4     3.9558     7.4753    1 CU   0 0-1    1 CU   0 0 1    2 CU  -1 0-1
                                     2 CU  -1 0 1

  18 O    2     1.9639     3.7113    2 CU   0 0 0    3 CU   0 0 0
  18 O    4     2.6086     4.9295   26 SR   0 0 0   26 SR   0 0-1   32 SR   0 0 0
                                    32 SR   0 0-1
  18 O    4     2.7774     5.2485   10 O    0 0 0   11 O    0 0 0   13 O    0 0 0
                                    16 O    1 0 0
  18 O    2     3.4338     6.4889   18 O    0 0-1   18 O    0 0 1
  18 O    4     3.9278     7.4226   17 O    1 0 0   19 O    0 0 0   22 O    0 0 0
                                    24 O    1 0 0
  18 O    4     3.9558     7.4753    2 CU   0 0-1    2 CU   0 0 1    3 CU   0 0 1
                                     3 CU   0 0-1

  19 O    2     1.9639     3.7113    3 CU   0 0 0    4 CU   0 0 0
  19 O    4     2.6086     4.9295   27 SR   0 0 0   27 SR   0 0-1   29 SR   0 0 0
                                    29 SR   0 0-1
  19 O    4     2.7774     5.2485   11 O    0 0 0   12 O    0 0 0   13 O    0 0 0
                                    14 O    0 0 0
  19 O    2     3.4338     6.4889   19 O    0 0-1   19 O    0 0 1
  19 O    4     3.9278     7.4226   18 O    0 0 0   20 O    0 0 0   21 O    0 0 0
                                    23 O    0 0 0
  19 O    4     3.9558     7.4753    3 CU   0 0-1    3 CU   0 0 1    4 CU   0 0 1
                                     4 CU   0 0-1

  20 O    2     1.9639     3.7113    1 CU   0-1 0    4 CU   0 0 0
  20 O    4     2.6086     4.9295   28 SR   0 0 0   28 SR   0 0-1   30 SR   0-1 0
                                    30 SR   0-1-1
  20 O    4     2.7774     5.2485    9 O    0 0 0   12 O    0 0 0   14 O    0 0 0
                                    15 O    0-1 0
  20 O    2     3.4338     6.4889   20 O    0 0-1   20 O    0 0 1
  20 O    4     3.9279     7.4226   17 O    0-1 0   19 O    0 0 0   22 O    0-1 0
                                    24 O    0 0 0
  20 O    4     3.9558     7.4753    1 CU   0-1-1    1 CU   0-1 1    4 CU   0 0-1
                                     4 CU   0 0 1

  21 O    2     1.9639     3.7113    5 CU   0 0 0    6 CU   0-1 0
  21 O    4     2.6086     4.9295   25 SR   0-1 0   25 SR   0-1-1   29 SR   0 0 0
                                    29 SR   0 0-1
  21 O    4     2.7774     5.2485    9 O    1 0 0   10 O    0-1 0   13 O    0 0 0
                                    14 O    0 0 0
  21 O    2     3.4338     6.4889   21 O    0 0-1   21 O    0 0 1
  21 O    4     3.9278     7.4226   17 O    1-1 0   19 O    0 0 0   22 O    0-1 0
                                    24 O    1 0 0
  21 O    4     3.9558     7.4753    5 CU   0 0-1    5 CU   0 0 1    6 CU   0-1-1
                                     6 CU   0-1 1

  22 O    2     1.9639     3.7113    6 CU   0 0 0    7 CU   0 0 0
  22 O    4     2.6086     4.9295   26 SR   0 0 0   26 SR   0 0-1   30 SR   0 0 0
                                    30 SR   0 0-1
  22 O    4     2.7774     5.2485   10 O    0 0 0   11 O    0 0 0   14 O    0 1 0
                                    15 O    0 0 0
  22 O    2     3.4338     6.4889   22 O    0 0-1   22 O    0 0 1
  22 O    4     3.9278     7.4226   18 O    0 0 0   20 O    0 1 0   21 O    0 1 0
                                    23 O    0 0 0
  22 O    4     3.9558     7.4753    6 CU   0 0-1    6 CU   0 0 1    7 CU   0 0 1
                                     7 CU   0 0-1

  23 O    2     1.9639     3.7113    7 CU   0 0 0    8 CU   0 0 0
  23 O    4     2.6086     4.9295   27 SR   0 0 0   27 SR   0 0-1   31 SR   0 0 0
                                    31 SR   0 0-1
  23 O    4     2.7774     5.2485   11 O    0 0 0   12 O    0 0 0   15 O    0 0 0
                                    16 O    0 0 0
  23 O    2     3.4338     6.4889   23 O    0 0-1   23 O    0 0 1
  23 O    4     3.9279     7.4226   17 O    0 0 0   19 O    0 0 0   22 O    0 0 0
                                    24 O    0 0 0
  23 O    4     3.9558     7.4753    7 CU   0 0-1    7 CU   0 0 1    8 CU   0 0 1
                                     8 CU   0 0-1

  24 O    2     1.9639     3.7113    5 CU  -1 0 0    8 CU   0 0 0
  24 O    4     2.6086     4.9295   28 SR   0 0 0   28 SR   0 0-1   32 SR  -1 0 0
                                    32 SR  -1 0-1
  24 O    4     2.7774     5.2485    9 O    0 0 0   12 O    0 0 0   13 O   -1 0 0
                                    16 O    0 0 0
  24 O    2     3.4338     6.4889   24 O    0 0-1   24 O    0 0 1
  24 O    4     3.9279     7.4226   18 O   -1 0 0   20 O    0 0 0   21 O   -1 0 0
                                    23 O    0 0 0
  24 O    4     3.9558     7.4753    5 CU  -1 0-1    5 CU  -1 0 1    8 CU   0 0-1
                                     8 CU   0 0 1

  25 SR   8     2.6086     4.9295    9 O    1 1 0    9 O    1 1 1   10 O    0 0 0
                                    10 O    0 0 1   17 O    1 0 0   17 O    1 0 1
                                    21 O    0 1 0   21 O    0 1 1
  25 SR   8     3.2652     6.1704    1 CU   1 0 0    1 CU   1 0 1    2 CU   0 0 0
                                     2 CU   0 0 1    5 CU   0 1 0    5 CU   0 1 1
                                     6 CU   0 0 0    6 CU   0 0 1
  25 SR   2     3.4338     6.4889   25 SR   0 0-1   25 SR   0 0 1
  25 SR   4     3.9278     7.4226   26 SR   0 0 0   28 SR   1 1 0   29 SR   0 1 0
                                    31 SR   1 0 0
  25 SR  16     4.7152     8.9104   13 O    0 1 0   13 O    0 1 1   14 O    0 1 0
                                    14 O    0 1 1   15 O    1 0 0   15 O    1 0 1
                                    16 O    1 0 0   16 O    1 0 1   18 O    0 0 0
                                    18 O    0 0 1   20 O    1 1 0   20 O    1 1 1
                                    22 O    0 0 0   22 O    0 0 1   24 O    1 1 0
                                    24 O    1 1 1
  25 SR   8     5.2172     9.8590   26 SR   0 0 1   26 SR   0 0-1   28 SR   1 1 1
                                    28 SR   1 1-1   29 SR   0 1 1   29 SR   0 1-1
                                    31 SR   1 0 1   31 SR   1 0-1

  26 SR   8     2.6086     4.9295   10 O    0 0 0   10 O    0 0 1   11 O    0 0 0
                                    11 O    0 0 1   18 O    0 0 0   18 O    0 0 1
                                    22 O    0 0 0   22 O    0 0 1
  26 SR   8     3.2652     6.1704    2 CU   0 0 0    2 CU   0 0 1    3 CU   0 0 0
                                     3 CU   0 0 1    6 CU   0 0 0    6 CU   0 0 1
                                     7 CU   0 0 0    7 CU   0 0 1
  26 SR   2     3.4338     6.4889   26 SR   0 0-1   26 SR   0 0 1
  26 SR   4     3.9278     7.4226   25 SR   0 0 0   27 SR   0 0 0   30 SR   0 0 0
                                    32 SR   0 0 0
  26 SR  16     4.7152     8.9104   13 O    0 0 0   13 O    0 0 1   14 O    0 1 0
                                    14 O    0 1 1   15 O    0 0 0   15 O    0 0 1
                                    16 O    1 0 0   16 O    1 0 1   17 O    1 0 0
                                    17 O    1 0 1   19 O    0 0 0   19 O    0 0 1
                                    21 O    0 1 0   21 O    0 1 1   23 O    0 0 0
                                    23 O    0 0 1
  26 SR   8     5.2172     9.8590   25 SR   0 0-1   25 SR   0 0 1   27 SR   0 0 1
                                    27 SR   0 0-1   30 SR   0 0-1   30 SR   0 0 1
                                    32 SR   0 0 1   32 SR   0 0-1

  27 SR   8     2.6086     4.9295   11 O    0 0 0   11 O    0 0 1   12 O    0 0 0
                                    12 O    0 0 1   19 O    0 0 0   19 O    0 0 1
                                    23 O    0 0 0   23 O    0 0 1
  27 SR   8     3.2652     6.1704    3 CU   0 0 0    3 CU   0 0 1    4 CU   0 0 0
                                     4 CU   0 0 1    7 CU   0 0 0    7 CU   0 0 1
                                     8 CU   0 0 0    8 CU   0 0 1
  27 SR   2     3.4338     6.4889   27 SR   0 0-1   27 SR   0 0 1
  27 SR   4     3.9278     7.4226   26 SR   0 0 0   28 SR   0 0 0   29 SR   0 0 0
                                    31 SR   0 0 0
  27 SR  16     4.7152     8.9104   13 O    0 0 0   13 O    0 0 1   14 O    0 0 0
                                    14 O    0 0 1   15 O    0 0 0   15 O    0 0 1
                                    16 O    0 0 0   16 O    0 0 1   18 O    0 0 0
                                    18 O    0 0 1   20 O    0 0 0   20 O    0 0 1
                                    22 O    0 0 0   22 O    0 0 1   24 O    0 0 0
                                    24 O    0 0 1
  27 SR   8     5.2172     9.8590   26 SR   0 0-1   26 SR   0 0 1   28 SR   0 0 1
                                    28 SR   0 0-1   29 SR   0 0 1   29 SR   0 0-1
                                    31 SR   0 0-1   31 SR   0 0 1

  28 SR   8     2.6086     4.9295    9 O    0 0 0    9 O    0 0 1   12 O    0 0 0
                                    12 O    0 0 1   20 O    0 0 0   20 O    0 0 1
                                    24 O    0 0 0   24 O    0 0 1
  28 SR   8     3.2652     6.1704    1 CU   0-1 0    1 CU   0-1 1    4 CU   0 0 0
                                     4 CU   0 0 1    5 CU  -1 0 0    5 CU  -1 0 1
                                     8 CU   0 0 0    8 CU   0 0 1
  28 SR   2     3.4338     6.4889   28 SR   0 0-1   28 SR   0 0 1
  28 SR   4     3.9279     7.4226   25 SR  -1-1 0   27 SR   0 0 0   30 SR   0-1 0
                                    32 SR  -1 0 0
  28 SR  16     4.7152     8.9104   13 O   -1 0 0   13 O   -1 0 1   14 O    0 0 0
                                    14 O    0 0 1   15 O    0-1 0   15 O    0-1 1
                                    16 O    0 0 0   16 O    0 0 1   17 O    0-1 0
                                    17 O    0-1 1   19 O    0 0 0   19 O    0 0 1
                                    21 O   -1 0 0   21 O   -1 0 1   23 O    0 0 0
                                    23 O    0 0 1
  28 SR   8     5.2172     9.8590   25 SR  -1-1-1   25 SR  -1-1 1   27 SR   0 0-1
                                    27 SR   0 0 1   30 SR   0-1-1   30 SR   0-1 1
                                    32 SR  -1 0-1   32 SR  -1 0 1

  29 SR   8     2.6086     4.9295   13 O    0 0 0   13 O    0 0 1   14 O    0 0 0
                                    14 O    0 0 1   19 O    0 0 0   19 O    0 0 1
                                    21 O    0 0 0   21 O    0 0 1
  29 SR   8     3.2652     6.1704    3 CU   0 0 0    3 CU   0 0 1    4 CU   0 0 0
                                     4 CU   0 0 1    5 CU   0 0 0    5 CU   0 0 1
                                     6 CU   0-1 0    6 CU   0-1 1
  29 SR   2     3.4338     6.4889   29 SR   0 0-1   29 SR   0 0 1
  29 SR   4     3.9278     7.4226   25 SR   0-1 0   27 SR   0 0 0   30 SR   0-1 0
                                    32 SR   0 0 0
  29 SR  16     4.7152     8.9104    9 O    1 0 0    9 O    1 0 1   10 O    0-1 0
                                    10 O    0-1 1   11 O    0 0 0   11 O    0 0 1
                                    12 O    0 0 0   12 O    0 0 1   18 O    0 0 0
                                    18 O    0 0 1   20 O    0 0 0   20 O    0 0 1
                                    22 O    0-1 0   22 O    0-1 1   24 O    1 0 0
                                    24 O    1 0 1
  29 SR   8     5.2172     9.8590   25 SR   0-1-1   25 SR   0-1 1   27 SR   0 0-1
                                    27 SR   0 0 1   30 SR   0-1-1   30 SR   0-1 1
                                    32 SR   0 0-1   32 SR   0 0 1

  30 SR   8     2.6086     4.9295   14 O    0 1 0   14 O    0 1 1   15 O    0 0 0
                                    15 O    0 0 1   20 O    0 1 0   20 O    0 1 1
                                    22 O    0 0 0   22 O    0 0 1
  30 SR   8     3.2652     6.1704    1 CU   0 0 0    1 CU   0 0 1    4 CU   0 1 0
                                     4 CU   0 1 1    6 CU   0 0 0    6 CU   0 0 1
                                     7 CU   0 0 0    7 CU   0 0 1
  30 SR   2     3.4338     6.4889   30 SR   0 0-1   30 SR   0 0 1
  30 SR   4     3.9278     7.4226   26 SR   0 0 0   28 SR   0 1 0   29 SR   0 1 0
                                    31 SR   0 0 0
  30 SR  16     4.7152     8.9104    9 O    0 1 0    9 O    0 1 1   10 O    0 0 0
                                    10 O    0 0 1   11 O    0 0 0   11 O    0 0 1
                                    12 O    0 1 0   12 O    0 1 1   17 O    0 0 0
                                    17 O    0 0 1   19 O    0 1 0   19 O    0 1 1
                                    21 O    0 1 0   21 O    0 1 1   23 O    0 0 0
                                    23 O    0 0 1
  30 SR   8     5.2172     9.8590   26 SR   0 0 1   26 SR   0 0-1   28 SR   0 1 1
                                    28 SR   0 1-1   29 SR   0 1 1   29 SR   0 1-1
                                    31 SR   0 0 1   31 SR   0 0-1

  31 SR   8     2.6086     4.9295   15 O    0 0 0   15 O    0 0 1   16 O    0 0 0
                                    16 O    0 0 1   17 O    0 0 0   17 O    0 0 1
                                    23 O    0 0 0   23 O    0 0 1
  31 SR   8     3.2652     6.1704    1 CU   0 0 0    1 CU   0 0 1    2 CU  -1 0 0
                                     2 CU  -1 0 1    7 CU   0 0 0    7 CU   0 0 1
                                     8 CU   0 0 0    8 CU   0 0 1
  31 SR   2     3.4338     6.4889   31 SR   0 0-1   31 SR   0 0 1
  31 SR   4     3.9279     7.4226   25 SR  -1 0 0   27 SR   0 0 0   30 SR   0 0 0
                                    32 SR  -1 0 0
  31 SR  16     4.7152     8.9104    9 O    0 1 0    9 O    0 1 1   10 O   -1 0 0
                                    10 O   -1 0 1   11 O    0 0 0   11 O    0 0 1
                                    12 O    0 0 0   12 O    0 0 1   18 O   -1 0 0
                                    18 O   -1 0 1   20 O    0 1 0   20 O    0 1 1
                                    22 O    0 0 0   22 O    0 0 1   24 O    0 0 0
                                    24 O    0 0 1
  31 SR   8     5.2172     9.8590   25 SR  -1 0-1   25 SR  -1 0 1   27 SR   0 0 1
                                    27 SR   0 0-1   30 SR   0 0-1   30 SR   0 0 1
                                    32 SR  -1 0-1   32 SR  -1 0 1

  32 SR   8     2.6086     4.9295   13 O    0 0 0   13 O    0 0 1   16 O    1 0 0
                                    16 O    1 0 1   18 O    0 0 0   18 O    0 0 1
                                    24 O    1 0 0   24 O    1 0 1
  32 SR   8     3.2652     6.1704    2 CU   0 0 0    2 CU   0 0 1    3 CU   0 0 0
                                     3 CU   0 0 1    5 CU   0 0 0    5 CU   0 0 1
                                     8 CU   1 0 0    8 CU   1 0 1
  32 SR   2     3.4338     6.4889   32 SR   0 0-1   32 SR   0 0 1
  32 SR   4     3.9278     7.4226   26 SR   0 0 0   28 SR   1 0 0   29 SR   0 0 0
                                    31 SR   1 0 0
  32 SR  16     4.7152     8.9104    9 O    1 0 0    9 O    1 0 1   10 O    0 0 0
                                    10 O    0 0 1   11 O    0 0 0   11 O    0 0 1
                                    12 O    1 0 0   12 O    1 0 1   17 O    1 0 0
                                    17 O    1 0 1   19 O    0 0 0   19 O    0 0 1
                                    21 O    0 0 0   21 O    0 0 1   23 O    1 0 0
                                    23 O    1 0 1
  32 SR   8     5.2172     9.8590   26 SR   0 0-1   26 SR   0 0 1   28 SR   1 0 1
[...]
 SPIN LOCKING: NO ENERGY GAP COMPUTED
 TTTTTTTTTTTTTTTTTTTTTTTTTTTTTT PDIG        TELAPSE    36890.12 TCPU    36220.82
 CHARGE NORMALIZATION FACTOR   1.00000000
 TOTAL ATOMIC CHARGES:
  18.7889055  18.7885865  18.7587697  18.7885477  18.7885438  18.7889065
  18.7885912  18.7587667   6.7316598   6.7316479   6.7254565   6.7254691
   6.7254748   6.7316589   6.7316478   6.7254611   6.7316480   6.7254610
   6.7254716   6.7316598   6.7316597   6.7316468   6.7254558   6.7254762
   1.0111276   1.0112238   1.0131443   1.0112202   1.0112209   1.0111276
   1.0112227   1.0131406
 SUMMED SPIN DENSITY           2.00000000
 TOTAL ATOMIC SPINS  :
   0.3411201   0.3539214  -0.5174623   0.3539870   0.3539876   0.3411204
   0.3539204  -0.5174627   0.1628533   0.1628546  -0.0359630  -0.0359485
  -0.0359483   0.1628527   0.1628546  -0.0359626   0.1628546  -0.0359629
  -0.0359487   0.1628528   0.1628529   0.1628546  -0.0359628  -0.0359480
  -0.0194822  -0.0098802   0.0000839  -0.0098800  -0.0098800  -0.0194825
  -0.0098802   0.0000840
 TTTTTTTTTTTTTTTTTTTTTTTTTTTTTT MOQGAD      TELAPSE    36890.21 TCPU    36220.91
 TTTTTTTTTTTTTTTTTTTTTTTTTTTTTT SHELLXN     TELAPSE    39146.29 TCPU    38459.15
 TTTTTTTTTTTTTTTTTTTTTTTTTTTTTT MONMO3      TELAPSE    39458.50 TCPU    38771.44
 NUMERICALLY INTEGRATED DENSITY    133.9994145053    131.9993747571
 TTTTTTTTTTTTTTTTTTTTTTTTTTTTTT NUMDFT      TELAPSE    39476.11 TCPU    38789.06
 CYC  14 ETOT(AU) -1.841471211589E+03 DETOT -1.95E-06 tst  7.98E-08 PX  5.57E-04
 CYCLE 14 WAVE FUNCTION SAVED IN FORTRAN UNIT 79
 TTTTTTTTTTTTTTTTTTTTTTTTTTTTTT DIIS        TELAPSE    39503.00 TCPU    38805.31
 DIIS TEST: 0.29154E-04 AT SCF   CYCLE  14 - DIIS ACTIVE - HISTORY:    14 CYCLES
 TTTTTTTTTTTTTTTTTTTTTTTTTTTTTT FDIK        TELAPSE    39539.32 TCPU    38823.55
 SPIN LOCKING: NO ENERGY GAP COMPUTED
 TTTTTTTTTTTTTTTTTTTTTTTTTTTTTT PDIG        TELAPSE    39548.87 TCPU    38831.36
 CHARGE NORMALIZATION FACTOR   1.00000000
 TOTAL ATOMIC CHARGES:
  18.7890064  18.7884328  18.7588435  18.7884468  18.7884428  18.7890075
  18.7884374  18.7588405   6.7316855   6.7317118   6.7254597   6.7254247
   6.7254304   6.7316846   6.7317118   6.7254644   6.7317127   6.7254633
   6.7254264   6.7316866   6.7316863   6.7317114   6.7254582   6.7254310
   1.0111102   1.0112123   1.0131522   1.0112242   1.0112249   1.0111101
   1.0112111   1.0131485
 SUMMED SPIN DENSITY           2.00000000
 TOTAL ATOMIC SPINS  :
   0.3414976   0.3537077  -0.5177502   0.3537489   0.3537494   0.3414981
   0.3537069  -0.5177506   0.1629134   0.1629086  -0.0358899  -0.0358779
  -0.0358778   0.1629128   0.1629086  -0.0358895   0.1629087  -0.0358896
  -0.0358782   0.1629126   0.1629128   0.1629084  -0.0358896  -0.0358774
  -0.0195288  -0.0099180   0.0000526  -0.0099176  -0.0099175  -0.0195290
  -0.0099180   0.0000527
 TTTTTTTTTTTTTTTTTTTTTTTTTTTTTT MOQGAD      TELAPSE    39549.02 TCPU    38831.51
 TTTTTTTTTTTTTTTTTTTTTTTTTTTTTT SHELLXN     TELAPSE    41803.67 TCPU    41072.57
 TTTTTTTTTTTTTTTTTTTTTTTTTTTTTT MONMO3      TELAPSE    42110.57 TCPU    41377.55
 NUMERICALLY INTEGRATED DENSITY    133.9994145774    131.9993747266
 TTTTTTTTTTTTTTTTTTTTTTTTTTTTTT NUMDFT      TELAPSE    42128.16 TCPU    41395.15
 CYC  15 ETOT(AU) -1.841471213234E+03 DETOT -1.64E-06 tst  1.21E-07 PX  7.44E-04
 CYCLE 15 WAVE FUNCTION SAVED IN FORTRAN UNIT 79
 TTTTTTTTTTTTTTTTTTTTTTTTTTTTTT DIIS        TELAPSE    42160.75 TCPU    41415.70
 DIIS TEST: 0.12757E-04 AT SCF   CYCLE  15 - DIIS ACTIVE - HISTORY:    15 CYCLES
 TTTTTTTTTTTTTTTTTTTTTTTTTTTTTT FDIK        TELAPSE    42189.68 TCPU    41430.39
 SPIN LOCKING: NO ENERGY GAP COMPUTED
 TTTTTTTTTTTTTTTTTTTTTTTTTTTTTT PDIG        TELAPSE    42198.36 TCPU    41438.11
 CHARGE NORMALIZATION FACTOR   1.00000000
 TOTAL ATOMIC CHARGES:
  18.7891341  18.7883884  18.7588473  18.7883271  18.7883231  18.7891354
  18.7883928  18.7588444   6.7317578   6.7316912   6.7253825   6.7254717
   6.7254775   6.7317569   6.7316912   6.7253871   6.7316909   6.7253875
   6.7254747   6.7317574   6.7317572   6.7316896   6.7253822   6.7254794
   1.0110996   1.0112265   1.0131565   1.0112057   1.0112064   1.0110995
   1.0112254   1.0131527
 SUMMED SPIN DENSITY           2.00000000
 TOTAL ATOMIC SPINS  :
   0.3418060   0.3535140  -0.5178816   0.3535776   0.3535781   0.3418064
   0.3535133  -0.5178819   0.1629226   0.1629329  -0.0358458  -0.0358214
  -0.0358213   0.1629219   0.1629330  -0.0358454   0.1629331  -0.0358454
  -0.0358217   0.1629220   0.1629221   0.1629329  -0.0358455  -0.0358209
  -0.0195482  -0.0099365   0.0000313  -0.0099390  -0.0099390  -0.0195484
  -0.0099365   0.0000313
 TTTTTTTTTTTTTTTTTTTTTTTTTTTTTT MOQGAD      TELAPSE    42198.53 TCPU    41438.28
 TTTTTTTTTTTTTTTTTTTTTTTTTTTTTT SHELLXN     TELAPSE    44446.94 TCPU    43672.93
 TTTTTTTTTTTTTTTTTTTTTTTTTTTTTT MONMO3      TELAPSE    44762.08 TCPU    43988.20
 NUMERICALLY INTEGRATED DENSITY    133.9994146159    131.9993747067
 TTTTTTTTTTTTTTTTTTTTTTTTTTTTTT NUMDFT      TELAPSE    44779.70 TCPU    44005.83
 CYC  16 ETOT(AU) -1.841471213938E+03 DETOT -7.04E-07 tst  7.16E-08 PX  5.62E-04
 CYCLE 16 WAVE FUNCTION SAVED IN FORTRAN UNIT 79
 TTTTTTTTTTTTTTTTTTTTTTTTTTTTTT DIIS        TELAPSE    44811.14 TCPU    44017.10
 DIIS TEST: 0.56671E-05 AT SCF   CYCLE  16 - DIIS ACTIVE - HISTORY:    16 CYCLES
 TTTTTTTTTTTTTTTTTTTTTTTTTTTTTT FDIK        TELAPSE    44843.51 TCPU    44033.13
 SPIN LOCKING: NO ENERGY GAP COMPUTED
 TTTTTTTTTTTTTTTTTTTTTTTTTTTTTT PDIG        TELAPSE    44848.91 TCPU    44035.56
 CHARGE NORMALIZATION FACTOR   1.00000000
 TOTAL ATOMIC CHARGES:
  18.7892190  18.7882783  18.7588543  18.7883167  18.7883127  18.7892203
  18.7882828  18.7588514   6.7317206   6.7317686   6.7254492   6.7253803
   6.7253859   6.7317196   6.7317684   6.7254539   6.7317691   6.7254531
   6.7253820   6.7317212   6.7317210   6.7317678   6.7254476   6.7253867
   1.0111043   1.0112074   1.0131511   1.0112240   1.0112247   1.0111042
   1.0112063   1.0131473
 SUMMED SPIN DENSITY           2.00000000
 TOTAL ATOMIC SPINS  :
   0.3420326   0.3534003  -0.5179716   0.3534314   0.3534321   0.3420329
   0.3533996  -0.5179716   0.1629441   0.1629344  -0.0358064  -0.0357951
  -0.0357949   0.1629436   0.1629343  -0.0358059   0.1629345  -0.0358059
  -0.0357953   0.1629437   0.1629438   0.1629344  -0.0358063  -0.0357945
  -0.0195617  -0.0099510   0.0000168  -0.0099511  -0.0099511  -0.0195618
  -0.0099510   0.0000166
 TTTTTTTTTTTTTTTTTTTTTTTTTTTTTT MOQGAD      TELAPSE    44849.00 TCPU    44035.65
 TTTTTTTTTTTTTTTTTTTTTTTTTTTTTT SHELLXN     TELAPSE    47096.96 TCPU    46272.17
 TTTTTTTTTTTTTTTTTTTTTTTTTTTTTT MONMO3      TELAPSE    47408.46 TCPU    46583.36
 NUMERICALLY INTEGRATED DENSITY    133.9994146408    131.9993746951
 TTTTTTTTTTTTTTTTTTTTTTTTTTTTTT NUMDFT      TELAPSE    47426.01 TCPU    46600.90
 CYC  17 ETOT(AU) -1.841471214302E+03 DETOT -3.64E-07 tst  3.84E-08 PX  4.22E-04
 CYCLE 17 WAVE FUNCTION SAVED IN FORTRAN UNIT 79
 TTTTTTTTTTTTTTTTTTTTTTTTTTTTTT DIIS        TELAPSE    47453.33 TCPU    46614.19
 DIIS TEST: 0.18116E-05 AT SCF   CYCLE  17 - DIIS ACTIVE - HISTORY:    17 CYCLES
 TTTTTTTTTTTTTTTTTTTTTTTTTTTTTT FDIK        TELAPSE    47486.46 TCPU    46628.87
 SPIN LOCKING: NO ENERGY GAP COMPUTED
 TTTTTTTTTTTTTTTTTTTTTTTTTTTTTT PDIG        TELAPSE    47491.12 TCPU    46630.54
 CHARGE NORMALIZATION FACTOR   1.00000000
 TOTAL ATOMIC CHARGES:
  18.7892726  18.7882712  18.7588594  18.7882435  18.7882394  18.7892737
  18.7882759  18.7588566   6.7317662   6.7317562   6.7253955   6.7254140
   6.7254197   6.7317650   6.7317560   6.7254001   6.7317571   6.7253993
   6.7254156   6.7317670   6.7317669   6.7317558   6.7253936   6.7254201
   1.0111099   1.0112161   1.0131431   1.0112127   1.0112133   1.0111098
   1.0112151   1.0131394
 SUMMED SPIN DENSITY           2.00000000
 TOTAL ATOMIC SPINS  :
   0.3421905   0.3533003  -0.5180191   0.3533631   0.3533638   0.3421905
   0.3532994  -0.5180192   0.1629422   0.1629426  -0.0357933  -0.0357726
  -0.0357725   0.1629417   0.1629426  -0.0357929   0.1629426  -0.0357930
  -0.0357728   0.1629417   0.1629418   0.1629426  -0.0357934  -0.0357723
  -0.0195669  -0.0099568   0.0000094  -0.0099579  -0.0099579  -0.0195670
  -0.0099567   0.0000093
 TTTTTTTTTTTTTTTTTTTTTTTTTTTTTT MOQGAD      TELAPSE    47491.23 TCPU    46630.65
 TTTTTTTTTTTTTTTTTTTTTTTTTTTTTT SHELLXN     TELAPSE    49744.14 TCPU    48868.08
 TTTTTTTTTTTTTTTTTTTTTTTTTTTTTT MONMO3      TELAPSE    50051.09 TCPU    49175.18
 NUMERICALLY INTEGRATED DENSITY    133.9994146540    131.9993746936
 TTTTTTTTTTTTTTTTTTTTTTTTTTTTTT NUMDFT      TELAPSE    50068.68 TCPU    49192.79
 CYC  18 ETOT(AU) -1.841471214424E+03 DETOT -1.22E-07 tst  1.73E-08 PX  2.91E-04
 CYCLE 18 WAVE FUNCTION SAVED IN FORTRAN UNIT 79
 TTTTTTTTTTTTTTTTTTTTTTTTTTTTTT DIIS        TELAPSE    50099.74 TCPU    49210.36
 DIIS TEST: 0.32273E-06 AT SCF   CYCLE  18 - DIIS ACTIVE - HISTORY:    18 CYCLES
 TTTTTTTTTTTTTTTTTTTTTTTTTTTTTT FDIK        TELAPSE    50132.74 TCPU    49222.83
 SPIN LOCKING: NO ENERGY GAP COMPUTED
 TTTTTTTTTTTTTTTTTTTTTTTTTTTTTT PDIG        TELAPSE    50138.31 TCPU    49226.08
 CHARGE NORMALIZATION FACTOR   1.00000000
 TOTAL ATOMIC CHARGES:
  18.7893108  18.7882424  18.7588543  18.7882267  18.7882225  18.7893128
  18.7882471  18.7588517   6.7317707   6.7317672   6.7254038   6.7253974
   6.7254033   6.7317696   6.7317670   6.7254085   6.7317673   6.7254087
   6.7254000   6.7317705   6.7317704   6.7317659   6.7254028   6.7254046
   1.0111079   1.0112136   1.0131435   1.0112140   1.0112146   1.0111078
   1.0112127   1.0131399
 SUMMED SPIN DENSITY           2.00000000
 TOTAL ATOMIC SPINS  :
   0.3422726   0.3532615  -0.5180254   0.3533209   0.3533215   0.3422724
   0.3532608  -0.5180254   0.1629400   0.1629391  -0.0357888  -0.0357694
  -0.0357690   0.1629395   0.1629391  -0.0357885   0.1629393  -0.0357885
  -0.0357695   0.1629398   0.1629398   0.1629391  -0.0357888  -0.0357689
  -0.0195654  -0.0099569   0.0000086  -0.0099578  -0.0099578  -0.0195656
  -0.0099569   0.0000086
 TTTTTTTTTTTTTTTTTTTTTTTTTTTTTT MOQGAD      TELAPSE    50138.47 TCPU    49226.24
 TTTTTTTTTTTTTTTTTTTTTTTTTTTTTT SHELLXN     TELAPSE    52391.40 TCPU    51464.25
 TTTTTTTTTTTTTTTTTTTTTTTTTTTTTT MONMO3      TELAPSE    52712.60 TCPU    51785.60
 NUMERICALLY INTEGRATED DENSITY    133.9994146558    131.9993746972
 TTTTTTTTTTTTTTTTTTTTTTTTTTTTTT NUMDFT      TELAPSE    52730.32 TCPU    51803.33
 CYC  19 ETOT(AU) -1.841471214437E+03 DETOT -1.31E-08 tst  4.27E-09 PX  1.42E-04
 CYCLE 19 WAVE FUNCTION SAVED IN FORTRAN UNIT 79
 TTTTTTTTTTTTTTTTTTTTTTTTTTTTTT DIIS        TELAPSE    52760.22 TCPU    51820.02
 DIIS TEST: 0.64642E-07 AT SCF   CYCLE  19 - DIIS ACTIVE - HISTORY:    19 CYCLES
 TTTTTTTTTTTTTTTTTTTTTTTTTTTTTT FDIK        TELAPSE    52794.09 TCPU    51831.79
 SPIN LOCKING: NO ENERGY GAP COMPUTED
 TTTTTTTTTTTTTTTTTTTTTTTTTTTTTT PDIG        TELAPSE    52803.31 TCPU    51837.75
 CHARGE NORMALIZATION FACTOR   1.00000000
 TOTAL ATOMIC CHARGES:
  18.7893218  18.7882384  18.7588500  18.7882206  18.7882163  18.7893222
  18.7882433  18.7588473   6.7317684   6.7317750   6.7253962   6.7254029
   6.7254089   6.7317672   6.7317748   6.7254010   6.7317766   6.7253996
   6.7254040   6.7317698   6.7317696   6.7317751   6.7253935   6.7254087
   1.0111081   1.0112126   1.0131424   1.0112136   1.0112141   1.0111079
   1.0112117   1.0131388
 SUMMED SPIN DENSITY           2.00000000
 TOTAL ATOMIC SPINS  :
   0.3422949   0.3532508  -0.5180174   0.3533145   0.3533149   0.3422961
   0.3532501  -0.5180174   0.1629374   0.1629348  -0.0357912  -0.0357705
  -0.0357701   0.1629370   0.1629348  -0.0357908   0.1629348  -0.0357908
  -0.0357706   0.1629369   0.1629371   0.1629346  -0.0357912  -0.0357700
  -0.0195631  -0.0099551   0.0000102  -0.0099561  -0.0099560  -0.0195633
  -0.0099552   0.0000101
 TTTTTTTTTTTTTTTTTTTTTTTTTTTTTT MOQGAD      TELAPSE    52803.48 TCPU    51837.93
 TTTTTTTTTTTTTTTTTTTTTTTTTTTTTT SHELLXN     TELAPSE    55061.86 TCPU    54077.03
 TTTTTTTTTTTTTTTTTTTTTTTTTTTTTT MONMO3      TELAPSE    55366.18 TCPU    54381.43
 NUMERICALLY INTEGRATED DENSITY    133.9994146537    131.9993747012
 TTTTTTTTTTTTTTTTTTTTTTTTTTTTTT NUMDFT      TELAPSE    55383.88 TCPU    54399.15
 CYC  20 ETOT(AU) -1.841471214436E+03 DETOT  1.23E-09 tst  3.29E-10 PX  4.10E-05
 CYCLE 20 WAVE FUNCTION SAVED IN FORTRAN UNIT 79
 TTTTTTTTTTTTTTTTTTTTTTTTTTTTTT DIIS        TELAPSE    55411.94 TCPU    54412.19
 DIIS TEST: 0.93392E-08 AT SCF   CYCLE  20 - DIIS ACTIVE - HISTORY:    20 CYCLES
 TTTTTTTTTTTTTTTTTTTTTTTTTTTTTT FDIK        TELAPSE    55446.01 TCPU    54427.37
 SPIN LOCKING: NO ENERGY GAP COMPUTED
 TTTTTTTTTTTTTTTTTTTTTTTTTTTTTT PDIG        TELAPSE    55451.44 TCPU    54429.40
 CHARGE NORMALIZATION FACTOR   1.00000000
 TOTAL ATOMIC CHARGES:
  18.7893240  18.7882359  18.7588498  18.7882157  18.7882114  18.7893315
  18.7882405  18.7588471   6.7317808   6.7317670   6.7254031   6.7253931
   6.7253991   6.7317801   6.7317664   6.7254080   6.7317660   6.7254090
   6.7253966   6.7317798   6.7317801   6.7317649   6.7254029   6.7254013
   1.0111093   1.0112131   1.0131405   1.0112123   1.0112128   1.0111091
   1.0112122   1.0131368
 SUMMED SPIN DENSITY           2.00000000
 TOTAL ATOMIC SPINS  :
   0.3423107   0.3532449  -0.5180157   0.3533103   0.3533107   0.3423067
   0.3532444  -0.5180154   0.1629343   0.1629350  -0.0357923  -0.0357712
  -0.0357706   0.1629337   0.1629352  -0.0357919   0.1629355  -0.0357919
  -0.0357712   0.1629341   0.1629341   0.1629350  -0.0357924  -0.0357706
  -0.0195620  -0.0099542   0.0000111  -0.0099553  -0.0099553  -0.0195622
  -0.0099542   0.0000110
 TTTTTTTTTTTTTTTTTTTTTTTTTTTTTT MOQGAD      TELAPSE    55451.60 TCPU    54429.55
 TTTTTTTTTTTTTTTTTTTTTTTTTTTTTT SHELLXN     TELAPSE    57711.94 TCPU    56671.82
 TTTTTTTTTTTTTTTTTTTTTTTTTTTTTT MONMO3      TELAPSE    58017.10 TCPU    56977.16
 NUMERICALLY INTEGRATED DENSITY    133.9994146526    131.9993747034
 TTTTTTTTTTTTTTTTTTTTTTTTTTTTTT NUMDFT      TELAPSE    58034.82 TCPU    56994.89
 CYC  21 ETOT(AU) -1.841471214434E+03 DETOT  1.77E-09 tst  1.00E-10 PX  2.39E-05
 CYCLE 21 WAVE FUNCTION SAVED IN FORTRAN UNIT 79
 TTTTTTTTTTTTTTTTTTTTTTTTTTTTTT DIIS        TELAPSE    58067.14 TCPU    57012.63
 DIIS TEST: 0.56236E-08 AT SCF   CYCLE  21 - DIIS ACTIVE - HISTORY:    21 CYCLES
 TTTTTTTTTTTTTTTTTTTTTTTTTTTTTT FDIK        TELAPSE    58097.12 TCPU    57022.28
 SPIN LOCKING: NO ENERGY GAP COMPUTED
 TTTTTTTTTTTTTTTTTTTTTTTTTTTTTT PDIG        TELAPSE    58102.32 TCPU    57027.02
 CHARGE NORMALIZATION FACTOR   1.00000000
 TOTAL ATOMIC CHARGES:
  18.7893333  18.7882354  18.7588488  18.7882152  18.7882110  18.7893248
  18.7882405  18.7588460   6.7317727   6.7317740   6.7253977   6.7254000
   6.7254062   6.7317711   6.7317744   6.7254024   6.7317755   6.7254018
   6.7254020   6.7317734   6.7317728   6.7317736   6.7253957   6.7254066
   1.0111090   1.0112123   1.0131405   1.0112128   1.0112133   1.0111089
   1.0112114   1.0131369
 SUMMED SPIN DENSITY           2.00000000
 TOTAL ATOMIC SPINS  :
   0.3423074   0.3532432  -0.5180135   0.3533112   0.3533116   0.3423146
   0.3532424  -0.5180138   0.1629350   0.1629332  -0.0357934  -0.0357715
  -0.0357710   0.1629347   0.1629331  -0.0357928   0.1629332  -0.0357929
  -0.0357716   0.1629346   0.1629349   0.1629331  -0.0357933  -0.0357709
  -0.0195615  -0.0099538   0.0000116  -0.0099548  -0.0099547  -0.0195617
  -0.0099538   0.0000115
 TTTTTTTTTTTTTTTTTTTTTTTTTTTTTT MOQGAD      TELAPSE    58102.42 TCPU    57027.12
 TTTTTTTTTTTTTTTTTTTTTTTTTTTTTT SHELLXN     TELAPSE    60359.13 TCPU    59267.85
 TTTTTTTTTTTTTTTTTTTTTTTTTTTTTT MONMO3      TELAPSE    60666.58 TCPU    59575.50
 NUMERICALLY INTEGRATED DENSITY    133.9994146520    131.9993747042
 TTTTTTTTTTTTTTTTTTTTTTTTTTTTTT NUMDFT      TELAPSE    60684.17 TCPU    59593.11
 CYC  22 ETOT(AU) -1.841471214434E+03 DETOT  2.50E-10 tst  8.90E-12 PX  9.65E-06
 CYCLE 22 WAVE FUNCTION SAVED IN FORTRAN UNIT 79
 TTTTTTTTTTTTTTTTTTTTTTTTTTTTTT DIIS        TELAPSE    60715.42 TCPU    59609.67
 DIIS TEST: 0.17337E-08 AT SCF   CYCLE  22 - DIIS ACTIVE - HISTORY:    22 CYCLES
 TTTTTTTTTTTTTTTTTTTTTTTTTTTTTT FDIK        TELAPSE    60747.00 TCPU    59619.17
 SPIN LOCKING: NO ENERGY GAP COMPUTED
 TTTTTTTTTTTTTTTTTTTTTTTTTTTTTT PDIG        TELAPSE    60755.53 TCPU    59625.72
 CHARGE NORMALIZATION FACTOR   1.00000000
 TOTAL ATOMIC CHARGES:
  18.7893132  18.7882362  18.7588474  18.7882148  18.7882105  18.7893462
  18.7882404  18.7588449   6.7317732   6.7317744   6.7253983   6.7253993
   6.7254051   6.7317738   6.7317724   6.7254035   6.7317736   6.7254025
   6.7254009   6.7317739   6.7317755   6.7317739   6.7253966   6.7254058
   1.0111086   1.0112121   1.0131406   1.0112125   1.0112132   1.0111084
   1.0112111   1.0131370
 SUMMED SPIN DENSITY           2.00000000
 TOTAL ATOMIC SPINS  :
   0.3423225   0.3532421  -0.5180120   0.3533124   0.3533129   0.3423017
   0.3532420  -0.5180108   0.1629345   0.1629323  -0.0357945  -0.0357722
  -0.0357713   0.1629333   0.1629330  -0.0357943   0.1629331  -0.0357939
  -0.0357719   0.1629341   0.1629335   0.1629321  -0.0357947  -0.0357716
  -0.0195609  -0.0099532   0.0000123  -0.0099541  -0.0099542  -0.0195611
  -0.0099531   0.0000122
 TTTTTTTTTTTTTTTTTTTTTTTTTTTTTT MOQGAD      TELAPSE    60755.70 TCPU    59625.88
 TTTTTTTTTTTTTTTTTTTTTTTTTTTTTT SHELLXN     TELAPSE    62991.42 TCPU    61859.01
 +++ ENERGIES IN A.U. +++
 ::: EXT EL-POLE                                  -1.5077172657991E+04
 ::: EXT EL-SPHEROPOLE                             5.2703660945556E+01
 ::: BIELET ZONE E-E                               1.5911631838247E+04
 ::: TOTAL E-E                                     8.8716284120183E+02
 ::: TOTAL E-N + N-E                              -2.9338963452458E+03
 ::: TOTAL N-N                                    -8.2862678999312E+02
 ::: KINETIC ENERGY                                1.1977623203102E+03
 ::: PSEUDO TOTAL   ENERGY                        -1.6775979737269E+03
 ::: VIRIAL COEFFICIENT                            8.3312155544063E-01
 TTTTTTTTTTTTTTTTTTTTTTTTTTTTTT MONMO3      TELAPSE    63312.27 TCPU    62180.14
 NUMERICALLY INTEGRATED DENSITY    133.9994146513    131.9993747051
 TTTTTTTTTTTTTTTTTTTTTTTTTTTTTT NUMDFT      TELAPSE    63330.04 TCPU    62197.93
 CYC  23 ETOT(AU) -1.841471214434E+03 DETOT  5.89E-10 tst  5.67E-11 PX  9.65E-06

 == SCF ENDED - CONVERGENCE ON ENERGY      E(AU) -1.8414712144336E+03 CYCLES  23


 ENERGY EXPRESSION=HARTREE+FOCK EXCH*0.25000+(PBE        EXCH)*0.75000+PBE        CORR

 FINITE TEMPERATURE DFT CALCULATION 
 TEMPERATURE      (T)    1.000000000000E-13 HARTREE 
 ENERGY           (E)   -1.841471214434E+03
 FREE ENERGY      (F)   -1.841471214434E+03
 ELECTRON ENTROPY (S)    0.000000000000E+00
 (E(T)+F(T))/2    (E0)  -1.841471214434E+03


 TOTAL ENERGY(DFT)(AU)( 23) -1.8414712144336E+03 DE 5.9E-10 tester 5.7E-11
 TTTTTTTTTTTTTTTTTTTTTTTTTTTTTT EDFT        TELAPSE    63330.17 TCPU    62197.95
 EIGENVECTORS IN FORTRAN UNIT 10
 TTTTTTTTTTTTTTTTTTTTTTTTTTTTTT END         TELAPSE    63336.26 TCPU    62203.09
 EEEEEEEEEE TERMINATION  DATE 23 06 2018 TIME 04:19:49.0
NODE    0 CPU TIME =     62203.087
NODE    1 CPU TIME =     62232.519
NODE    2 CPU TIME =     62271.898
NODE    3 CPU TIME =     62262.928
NODE    4 CPU TIME =     62279.649
NODE    5 CPU TIME =     62259.930
NODE    6 CPU TIME =     62161.915
NODE    7 CPU TIME =     62335.770
NODE    8 CPU TIME =     62339.774
NODE    9 CPU TIME =     62255.561
NODE   10 CPU TIME =     62341.025
NODE   11 CPU TIME =     62312.384
NODE   12 CPU TIME =     62297.257
NODE   13 CPU TIME =     62241.255
NODE   14 CPU TIME =     62303.061
NODE   15 CPU TIME =     62222.332
NODE   16 CPU TIME =     62295.248
NODE   17 CPU TIME =     62166.710
NODE   18 CPU TIME =     62208.369
NODE   19 CPU TIME =     62175.365
NODE   20 CPU TIME =     62235.469
NODE   21 CPU TIME =     62251.560
NODE   22 CPU TIME =     62226.362
NODE   23 CPU TIME =     62085.452
    TOTAL CPU TIME =   1493964.879
