--------------------------------------------------------------------------
WARNING: No preset parameters were found for the device that Open MPI
detected:

  Local host:            golub044
  Device name:           mlx4_0
  Device vendor ID:      0x02c9
  Device vendor part ID: 4099

Default device parameters will be used, which may result in lower
performance.  You can edit any of the files specified by the
btl_openib_device_param_files MCA parameter to set values for your
device.

NOTE: You can turn off this warning by setting the MCA parameter
      btl_openib_warn_no_device_params_found to 0.
--------------------------------------------------------------------------
 PROCESS           22  OF           32  WORKING
 PROCESS           27  OF           32  WORKING
 PROCESS           31  OF           32  WORKING
 PROCESS           21  OF           32  WORKING
 PROCESS           30  OF           32  WORKING
 PROCESS            5  OF           32  WORKING
 PROCESS            7  OF           32  WORKING
 PROCESS            6  OF           32  WORKING
 PROCESS            3  OF           32  WORKING
 PROCESS           10  OF           32  WORKING
 PROCESS           23  OF           32  WORKING
 PROCESS           17  OF           32  WORKING
 PROCESS           25  OF           32  WORKING
 PROCESS           15  OF           32  WORKING
 PROCESS            8  OF           32  WORKING
 PROCESS           13  OF           32  WORKING
 PROCESS           19  OF           32  WORKING
 PROCESS           16  OF           32  WORKING
 PROCESS           24  OF           32  WORKING
 PROCESS           11  OF           32  WORKING
 PROCESS           26  OF           32  WORKING
 PROCESS           28  OF           32  WORKING
 PROCESS           18  OF           32  WORKING
 PROCESS            1  OF           32  WORKING
 PROCESS           14  OF           32  WORKING
 PROCESS           20  OF           32  WORKING
 PROCESS            2  OF           32  WORKING
 PROCESS           12  OF           32  WORKING
 PROCESS            0  OF           32  WORKING
 PROCESS            9  OF           32  WORKING
 PROCESS           29  OF           32  WORKING
 PROCESS            4  OF           32  WORKING

         
 *******************************************************************************
 *                                                                             *
 *                               CRYSTAL17                                     *
 *                      public : 1.0.1 - Jun 21st, 2017                        *
 *                       HTTP://WWW.CRYSTAL.UNITO.IT                           *
 *                                                                             *
 *                              MAIN AUTHORS                                   *
 *                                                                             *
 *  R. DOVESI(1,11), V.R. SAUNDERS(2), C. ROETTI(1,11), R. ORLANDO(1,11),      *
 *  C.M. ZICOVICH-WILSON(1,3), F. PASCALE(4), B. CIVALLERI(1,11),              *
 *  K. DOLL(5), N.M. HARRISON(2,6), I.J. BUSH(7), Ph. D'ARCO(8),               *
 *  M. LLUNELL(9), M. CAUSA'(10), Y. NOEL(8), L. MASCHIO(1,11), A. ERBA(1,11)  *
 *  M. RE'RAT(14), S. CASASSA(1,11)                                            *
 *                                                                             *
 *        CONTRIBUTIONS TO THE CODE HAVE ALSO BEEN GIVEN BY                    *
 *                                                                             *
 *  M. FERRABONE(1,11), M. DE LA PIERRE(1,11), M. FERRERO(1,11),               *
 *  J. BAIMA(1,11), E. ALBANESE(1,11), M.F. PEINTINGER(12), R. BAST(13),       *
 *  B. KIRTMAN(15), V. LACIVITA(1,11), R. DEMICHELIS(1,16)                     *
 *  G. BRANDEBURG(17), S. SALUSTRO(1,11), G. SANSONE(1,11)                     *
 *  M.T. RUGGIERO(18)                                                          *
 *                                                                             *
 * (1) THEORETICAL CHEMISTRY GROUP - UNIVERSITA' DI TORINO - TORINO (ITALY)    *

 * (2) COMPUTATIONAL SCIENCE & ENGINEERING DEPARTMENT - STFC DARESBURY (UK)    *
 * (3) UNIVERSIDAD AUTONOMA DEL ESTADO DE MORELOS - CUERNAVACA (MEXICO)        *
 * (4) UNIVERSITE' DE LORRAINE - NANCY (FRANCE)                                *
 * (5) UNIVERSITAET STUTTGART- STUTTGART (GERMANY)                             *
 * (6) IMPERIAL COLLEGE - LONDON (UK)                                          *
 * (7) OXFORD E-RESEARCH CENTRE - OXFORD (UK)                                  *
 * (8) UPMC - SORBONNE UNIVERSITES - PARIS (FRANCE)                            *
 * (9) UNIVERSIDAD DE BARCELONA - BARCELONA (SPAIN)                            *
 *(10) UNIVERSITA' DI NAPOLI "FEDERICO II" - NAPOLI (ITALY)                    *
 *(11) NIS - NANOSTRUCTURED INTERFACES AND SURFACES - TORINO (ITALY)           *
 *(12) MPI FUER CHEMISCHE ENERGIEKONVERSION - MUELHEIM AN DER RUHR (GERMANY)   *
 *(13) UNIVERSITY OF TROMSO - TROMSO (NORWAY)                                  *
 *(14) UNIVERSITE' DE PAU ET DES PAYS DE L'ADOUR - PAU (FRANCE)                *
 *(15) UNIVERSITY OF CALIFORNIA SANTA BARBARA - SANTA BARBARA (USA)            *
 *(16) CURTIN UNIVERSITY - PERTH (AUSTRALIA)                                   *
 *(17) UNIVERSITY COLLEGE LONDON - LONDON (UK)                                 *
 *(18) CAMBRIDGE UNIVERSITY - CAMBRIDGE (UK)                                   *
 *                                                                             *
 *******************************************************************************
 EEEEEEEEEE STARTING  DATE 24 01 2018 TIME 08:13:12.0
 Generated by CrystalWriter                                                      

 CRYSTAL CALCULATION
 (INPUT ACCORDING TO THE INTERNATIONAL TABLES FOR X-RAY CRYSTALLOGRAPHY)
 CRYSTAL FAMILY                       :  TETRAGONAL  
 CRYSTAL CLASS  (GROTH - 1921)        :  DITETRAGONAL PYRAMIDAL               

 SPACE GROUP (NONCENTROSYMMETRIC)     :  P 4 M M         

 LATTICE PARAMETERS  (ANGSTROMS AND DEGREES) - CONVENTIONAL CELL
        A           B           C        ALPHA        BETA       GAMMA
     3.92785     3.92785     3.43380    90.00000    90.00000    90.00000


 NUMBER OF IRREDUCIBLE ATOMS IN THE CONVENTIONAL CELL:    4

 INPUT COORDINATES

 ATOM AT. N.              COORDINATES
   1 238     0.000000000000E+00  0.000000000000E+00  5.000000000000E-01
   2 229     5.000000000000E-01  5.000000000000E-01  0.000000000000E+00
   3 208     0.000000000000E+00  5.000000000000E-01  0.000000000000E+00
   4 208     5.000000000000E-01  0.000000000000E+00  0.000000000000E+00

 *******************************************************************************

 << INFORMATION >>: FROM NOW ON, ALL COORDINATES REFER TO THE PRIMITIVE CELL

 *******************************************************************************

 LATTICE PARAMETERS  (ANGSTROMS AND DEGREES) - PRIMITIVE CELL
       A          B          C        ALPHA      BETA     GAMMA        VOLUME
    3.92785    3.92785    3.43380    90.00000  90.00000  90.00000     52.976686

 INPUT LIST - ATOM N.   4 NOT IRREDUCIBLE

 COORDINATES OF THE EQUIVALENT ATOMS (FRACTIONAL UNITS)

 N. ATOM EQUIV AT. N.          X                  Y                  Z

   1   1   1  238 SR    0.00000000000E+00  0.00000000000E+00 -5.00000000000E-01

   2   2   1  229 CU   -5.00000000000E-01 -5.00000000000E-01  0.00000000000E+00

   3   3   1  208 O     0.00000000000E+00 -5.00000000000E-01  0.00000000000E+00
   4   3   2  208 O     5.00000000000E-01  0.00000000000E+00  0.00000000000E+00

 NUMBER OF SYMMETRY OPERATORS         :    8
 *******************************************************************************
 * GEOMETRY EDITING - INPUT COORDINATES ARE GIVEN IN ANGSTROM         
 *******************************************************************************

 GEOMETRY NOW FULLY CONSISTENT WITH THE GROUP

 NO SYMMOPS WITH FINITE TRANSLATIONAL COMPONENT

 *******************************************************************************
 * SUPERCELL OPTION
 *******************************************************************************


        EXPANSION MATRIX OF PRIMITIVE CELL
 E1     2.000     0.000     0.000
 E2     0.000     2.000     0.000
 E3     0.000     0.000     1.000

 NUMBER OF ATOMS PER SUPERCELL    16

        DIRECT LATTICE VECTORS COMPONENTS (ANGSTROM)
 B1     7.856     0.000     0.000
 B2     0.000     7.856     0.000
 B3     0.000     0.000     3.434

 LATTICE PARAMETERS  (ANGSTROM AND DEGREES)
       A          B          C         ALPHA     BETA     GAMMA        VOLUME
    7.85570    7.85570    3.43380    90.00000  90.00000  90.00000    211.906743


 **** ATOMS BELONGING TO THE SUPERCELL
 LABEL AT.NO.      COORDINATES (ANGSTROM AND FRACTIONAL)
     1   238     0.0000     0.0000    -1.7169     0.0000     0.0000    -0.5000
     2   238     0.0000     3.9278    -1.7169     0.0000     0.5000    -0.5000
     3   238    -3.9278     0.0000    -1.7169    -0.5000     0.0000    -0.5000
     4   238    -3.9278     3.9278    -1.7169    -0.5000     0.5000    -0.5000
     5   229    -1.9639    -1.9639     0.0000    -0.2500    -0.2500     0.0000
     6   229    -1.9639     1.9639     0.0000    -0.2500     0.2500     0.0000
     7   229     1.9639    -1.9639     0.0000     0.2500    -0.2500     0.0000
     8   229     1.9639     1.9639     0.0000     0.2500     0.2500     0.0000
     9   208     0.0000    -1.9639     0.0000     0.0000    -0.2500     0.0000
    10   208     0.0000     1.9639     0.0000     0.0000     0.2500     0.0000
    11   208    -3.9278    -1.9639     0.0000    -0.5000    -0.2500     0.0000
    12   208    -3.9278     1.9639     0.0000    -0.5000     0.2500     0.0000
    13   208    -1.9639     0.0000     0.0000    -0.2500     0.0000     0.0000
    14   208    -1.9639     3.9278     0.0000    -0.2500     0.5000     0.0000
    15   208     1.9639     0.0000     0.0000     0.2500     0.0000     0.0000
    16   208     1.9639     3.9278     0.0000     0.2500     0.5000     0.0000

 **************************** SUPERCELL GENERATED ****************************
 *********************************************************************
                        ATOMIC SITE SYMMETRIES
 *********************************************************************


 ATOM   1 ATOMIC NUMBER 238 - NUMBER OF SYMMOPS WHICH DO NOT MOVE THE ATOM   8
 SEQUENCE NUMBERS OF THE SYMMOPS
    1    2    3    4    5    6    7    8
 NO EQUIVALENT ATOMS


 ATOM   2 ATOMIC NUMBER 238 - NUMBER OF SYMMOPS WHICH DO NOT MOVE THE ATOM   4
 SEQUENCE NUMBERS OF THE SYMMOPS
    1    2    5    6
 NUMBER OF ATOMS EQUIVALENT BY SYMMETRY    1
 SEQUENCE NUMBERS OF THESE ATOMS
    3
 SEQUENCE NUMBERS OF THE CORRESPONDING SYMMOPS
    3


 ATOM   3 ATOMIC NUMBER 238 - NUMBER OF SYMMOPS WHICH DO NOT MOVE THE ATOM   4
 SEQUENCE NUMBERS OF THE SYMMOPS
    1    2    5    6
 NUMBER OF ATOMS EQUIVALENT BY SYMMETRY    1
 SEQUENCE NUMBERS OF THESE ATOMS
    2
 SEQUENCE NUMBERS OF THE CORRESPONDING SYMMOPS
    3


 ATOM   4 ATOMIC NUMBER 238 - NUMBER OF SYMMOPS WHICH DO NOT MOVE THE ATOM   8
 SEQUENCE NUMBERS OF THE SYMMOPS
    1    2    3    4    5    6    7    8
 NO EQUIVALENT ATOMS


 ATOM   5 ATOMIC NUMBER 229 - NUMBER OF SYMMOPS WHICH DO NOT MOVE THE ATOM   2
 SEQUENCE NUMBERS OF THE SYMMOPS
    1    7
 NUMBER OF ATOMS EQUIVALENT BY SYMMETRY    3
 SEQUENCE NUMBERS OF THESE ATOMS
    8    7    6
 SEQUENCE NUMBERS OF THE CORRESPONDING SYMMOPS
    2    3    4


 ATOM   6 ATOMIC NUMBER 229 - NUMBER OF SYMMOPS WHICH DO NOT MOVE THE ATOM   2
 SEQUENCE NUMBERS OF THE SYMMOPS
    1    8
 NUMBER OF ATOMS EQUIVALENT BY SYMMETRY    3
 SEQUENCE NUMBERS OF THESE ATOMS
    7    5    8
 SEQUENCE NUMBERS OF THE CORRESPONDING SYMMOPS
    2    3    4


 ATOM   7 ATOMIC NUMBER 229 - NUMBER OF SYMMOPS WHICH DO NOT MOVE THE ATOM   2
 SEQUENCE NUMBERS OF THE SYMMOPS
    1    8
 NUMBER OF ATOMS EQUIVALENT BY SYMMETRY    3
 SEQUENCE NUMBERS OF THESE ATOMS
    6    8    5
 SEQUENCE NUMBERS OF THE CORRESPONDING SYMMOPS
    2    3    4


 ATOM   8 ATOMIC NUMBER 229 - NUMBER OF SYMMOPS WHICH DO NOT MOVE THE ATOM   2
 SEQUENCE NUMBERS OF THE SYMMOPS
    1    7
 NUMBER OF ATOMS EQUIVALENT BY SYMMETRY    3
 SEQUENCE NUMBERS OF THESE ATOMS
    5    6    7
 SEQUENCE NUMBERS OF THE CORRESPONDING SYMMOPS
    2    3    4


 ATOM   9 ATOMIC NUMBER 208 - NUMBER OF SYMMOPS WHICH DO NOT MOVE THE ATOM   2
 SEQUENCE NUMBERS OF THE SYMMOPS
    1    5
 NUMBER OF ATOMS EQUIVALENT BY SYMMETRY    3
 SEQUENCE NUMBERS OF THESE ATOMS
   10   15   13
 SEQUENCE NUMBERS OF THE CORRESPONDING SYMMOPS
    2    3    4


 ATOM  10 ATOMIC NUMBER 208 - NUMBER OF SYMMOPS WHICH DO NOT MOVE THE ATOM   2
 SEQUENCE NUMBERS OF THE SYMMOPS
    1    5
 NUMBER OF ATOMS EQUIVALENT BY SYMMETRY    3
 SEQUENCE NUMBERS OF THESE ATOMS
    9   13   15
 SEQUENCE NUMBERS OF THE CORRESPONDING SYMMOPS
    2    3    4


 ATOM  11 ATOMIC NUMBER 208 - NUMBER OF SYMMOPS WHICH DO NOT MOVE THE ATOM   2
 SEQUENCE NUMBERS OF THE SYMMOPS
    1    5
 NUMBER OF ATOMS EQUIVALENT BY SYMMETRY    3
 SEQUENCE NUMBERS OF THESE ATOMS
   12   16   14
 SEQUENCE NUMBERS OF THE CORRESPONDING SYMMOPS
    2    3    4


 ATOM  12 ATOMIC NUMBER 208 - NUMBER OF SYMMOPS WHICH DO NOT MOVE THE ATOM   2
 SEQUENCE NUMBERS OF THE SYMMOPS
    1    5
 NUMBER OF ATOMS EQUIVALENT BY SYMMETRY    3
 SEQUENCE NUMBERS OF THESE ATOMS
   11   14   16
 SEQUENCE NUMBERS OF THE CORRESPONDING SYMMOPS
    2    3    4


 ATOM  13 ATOMIC NUMBER 208 - NUMBER OF SYMMOPS WHICH DO NOT MOVE THE ATOM   2
 SEQUENCE NUMBERS OF THE SYMMOPS
    1    6
 NUMBER OF ATOMS EQUIVALENT BY SYMMETRY    3
 SEQUENCE NUMBERS OF THESE ATOMS
   15    9   10
 SEQUENCE NUMBERS OF THE CORRESPONDING SYMMOPS
    2    3    4


 ATOM  14 ATOMIC NUMBER 208 - NUMBER OF SYMMOPS WHICH DO NOT MOVE THE ATOM   2
 SEQUENCE NUMBERS OF THE SYMMOPS
    1    6
 NUMBER OF ATOMS EQUIVALENT BY SYMMETRY    3
 SEQUENCE NUMBERS OF THESE ATOMS
   16   11   12
 SEQUENCE NUMBERS OF THE CORRESPONDING SYMMOPS
    2    3    4


 ATOM  15 ATOMIC NUMBER 208 - NUMBER OF SYMMOPS WHICH DO NOT MOVE THE ATOM   2
 SEQUENCE NUMBERS OF THE SYMMOPS
    1    6
 NUMBER OF ATOMS EQUIVALENT BY SYMMETRY    3
 SEQUENCE NUMBERS OF THESE ATOMS
   13   10    9
 SEQUENCE NUMBERS OF THE CORRESPONDING SYMMOPS
    2    3    4


 ATOM  16 ATOMIC NUMBER 208 - NUMBER OF SYMMOPS WHICH DO NOT MOVE THE ATOM   2
 SEQUENCE NUMBERS OF THE SYMMOPS
    1    6
 NUMBER OF ATOMS EQUIVALENT BY SYMMETRY    3
 SEQUENCE NUMBERS OF THESE ATOMS
   14   12   11
 SEQUENCE NUMBERS OF THE CORRESPONDING SYMMOPS
    2    3    4

 *****    8 SYMMOPS - TRANSLATORS IN ANGSTROM
 ***** MATRICES AND TRANSLATORS IN THE CARTESIAN REFERENCE FRAME

 ORDER   : ORDER OF THE OPERATOR

 TRANSLA : REAL TRANSLATION (WITHOUT ORIGIN SHIFT) IN CARTESIAN COORDINATES

 uvw/hkl : ORIENTATION OF THE OPERATOR IN CARTESIAN COORDINATES

 LOCATED : ORIGIN OF THE OPERATOR IN CARTESIAN COORDINATES

   NO.   1 INVERSE   1    ORDER   1        NO.   2 INVERSE   2    ORDER   2
    1.000   0.000   0.000     0.000        -1.000   0.000   0.000     0.000
    0.000   1.000   0.000     0.000         0.000  -1.000   0.000     0.000
    0.000   0.000   1.000     0.000         0.000   0.000   1.000     0.000
             OPERATION E(   1)                       OPERATION C(   2)
 DETERMINANT 1.; ROTATION(DEG)   0.      DETERMINANT 1.; ROTATION(DEG) 180.
 TRANSLA (  0.000    0.000    0.000)     TRANSLA (  0.000    0.000    0.000)
 uvw/hkl (  0.000    0.000    0.000)     uvw/hkl (  0.000    0.000    4.000)
 LOCATED (  0.000    0.000    0.000)     LOCATED (  0.000    0.000    0.000)

   NO.   3 INVERSE   4    ORDER   4        NO.   4 INVERSE   3    ORDER   4
    0.000  -1.000   0.000     0.000         0.000   1.000   0.000     0.000
    1.000   0.000   0.000     0.000        -1.000   0.000   0.000     0.000
    0.000   0.000   1.000     0.000         0.000   0.000   1.000     0.000
             OPERATION C(   4)                       OPERATION C(   4)
 DETERMINANT 1.; ROTATION(DEG)  90.      DETERMINANT 1.; ROTATION(DEG)  90.
 TRANSLA (  0.000    0.000    0.000)     TRANSLA (  0.000    0.000    0.000)
 uvw/hkl (  0.000    0.000    2.000)     uvw/hkl (  0.000    0.000    2.000)
 LOCATED (  0.000    0.000    0.000)     LOCATED (  0.000    0.000    0.000)

   NO.   5 INVERSE   5    ORDER   2        NO.   6 INVERSE   6    ORDER   2
   -1.000   0.000   0.000     0.000         1.000   0.000   0.000     0.000
    0.000   1.000   0.000     0.000         0.000  -1.000   0.000     0.000
    0.000   0.000   1.000     0.000         0.000   0.000   1.000     0.000
             OPERATION M(   2)                       OPERATION M(   2)
 DETERMINANT-1.; ROTATION(DEG)   0.      DETERMINANT-1.; ROTATION(DEG)   0.
 TRANSLA (  0.000    0.000    0.000)     TRANSLA (  0.000    0.000    0.000)
 uvw/hkl (  2.000    0.000    0.000)     uvw/hkl (  0.000   -2.000    0.000)
 LOCATED (  0.000    0.000    0.000)     LOCATED (  0.000    0.000    0.000)

   NO.   7 INVERSE   7    ORDER   2        NO.   8 INVERSE   8    ORDER   2
    0.000   1.000   0.000     0.000         0.000  -1.000   0.000     0.000
    1.000   0.000   0.000     0.000        -1.000   0.000   0.000     0.000
    0.000   0.000   1.000     0.000         0.000   0.000   1.000     0.000
             OPERATION M(   2)                       OPERATION M(   2)
 DETERMINANT-1.; ROTATION(DEG)   0.      DETERMINANT-1.; ROTATION(DEG)   0.
 TRANSLA (  0.000    0.000    0.000)     TRANSLA (  0.000    0.000    0.000)
 uvw/hkl (  1.000   -1.000    0.000)     uvw/hkl (  1.000    1.000    0.000)
 LOCATED (  0.000    0.000    0.000)     LOCATED (  0.000    0.000    0.000)
 SSSSSSSSSSSSSSSSSSSSSSSSSSSSSSSSSSSSSSSSSSSSSSSSSSSSSSSSSSSSSSSSSSSSSSSSSSSSSS
 REDUCTION OF SYMMETRY - ATOMIC LABELS SET TO (ATOM, AT. N., LABEL)
   1(238) 1;   2(238) 1;   3(238) 1;   4(238) 1;   5(229) 2;   6(229) 3;
   7(229) 4;   8(229) 5;   9(208) 6;  10(208) 6;  11(208) 6;  12(208) 6;
  13(208) 6;  14(208) 6;  15(208) 6;  16(208) 6;
 THE NUMBER OF SYMMETRY OPERATORS HAS BEEN REDUCED FROM  8 TO  1
 *******************************************************************************

 GCALCO - MAX INDICES DIRECT LATTICE VECTOR    11    11    25
 NO.OF VECTORS CREATED 6999 STARS  550 RMAX   133.78549 BOHR

 GEOMETRY FOR WAVE FUNCTION - DIMENSIONALITY OF THE SYSTEM    3
 (NON PERIODIC DIRECTION: LATTICE PARAMETER FORMALLY SET TO 500)
 *******************************************************************************
 LATTICE PARAMETERS (ANGSTROMS AND DEGREES) - BOHR = 0.5291772083 ANGSTROM
 PRIMITIVE CELL - CENTRING CODE 1/1 VOLUME=   211.906743 - DENSITY  5.731 g/cm^3
         A              B              C           ALPHA      BETA       GAMMA 
     7.85570000     7.85570000     3.43380000    90.000000  90.000000  90.000000
 *******************************************************************************
 ATOMS IN THE ASYMMETRIC UNIT   16 - ATOMS IN THE UNIT CELL:   16
     ATOM                 X/A                 Y/B                 Z/C    
 *******************************************************************************
      1 T 238 SR    0.000000000000E+00  0.000000000000E+00  5.000000000000E-01
      2 T 238 SR    0.000000000000E+00 -5.000000000000E-01  5.000000000000E-01
      3 T 238 SR   -5.000000000000E-01  0.000000000000E+00  5.000000000000E-01
      4 T 238 SR   -5.000000000000E-01 -5.000000000000E-01  5.000000000000E-01
      5 T 229 CU   -2.500000000000E-01 -2.500000000000E-01  0.000000000000E+00
      6 T 229 CU   -2.500000000000E-01  2.500000000000E-01  0.000000000000E+00
      7 T 229 CU    2.500000000000E-01 -2.500000000000E-01  0.000000000000E+00
      8 T 229 CU    2.500000000000E-01  2.500000000000E-01  0.000000000000E+00
      9 T 208 O     0.000000000000E+00 -2.500000000000E-01  0.000000000000E+00
     10 T 208 O     0.000000000000E+00  2.500000000000E-01  0.000000000000E+00
     11 T 208 O    -5.000000000000E-01 -2.500000000000E-01  0.000000000000E+00
     12 T 208 O    -5.000000000000E-01  2.500000000000E-01  0.000000000000E+00
     13 T 208 O    -2.500000000000E-01  0.000000000000E+00  0.000000000000E+00
     14 T 208 O    -2.500000000000E-01 -5.000000000000E-01  0.000000000000E+00
     15 T 208 O     2.500000000000E-01  0.000000000000E+00  0.000000000000E+00
     16 T 208 O     2.500000000000E-01 -5.000000000000E-01  0.000000000000E+00

 T = ATOM BELONGING TO THE ASYMMETRIC UNIT

 ****    1 SYMMOPS - TRANSLATORS IN FRACTIONAL UNITS
 **** MATRICES AND TRANSLATORS IN THE CRYSTALLOGRAPHIC REFERENCE FRAME
   V INV                    ROTATION MATRICES                   TRANSLATORS
   1   1  1.00  0.00  0.00  0.00  1.00  0.00  0.00  0.00  1.00  0.00  0.00  0.00

 DIRECT LATTICE VECTORS CARTESIAN COMPONENTS (ANGSTROM)
          X                    Y                    Z
   0.785570000000E+01   0.000000000000E+00   0.000000000000E+00
   0.000000000000E+00   0.785570000000E+01   0.000000000000E+00
   0.000000000000E+00   0.000000000000E+00   0.343380000000E+01


 CARTESIAN COORDINATES - PRIMITIVE CELL
 *******************************************************************************
 *      ATOM          X(ANGSTROM)         Y(ANGSTROM)         Z(ANGSTROM)
 *******************************************************************************
    1   238 SR    0.000000000000E+00  0.000000000000E+00  1.716900000000E+00
    2   238 SR    0.000000000000E+00  3.927850000000E+00  1.716900000000E+00
    3   238 SR    3.927850000000E+00  0.000000000000E+00  1.716900000000E+00
    4   238 SR    3.927850000000E+00  3.927850000000E+00  1.716900000000E+00
    5   229 CU   -1.963925000000E+00 -1.963925000000E+00  0.000000000000E+00
    6   229 CU   -1.963925000000E+00  1.963925000000E+00  0.000000000000E+00
    7   229 CU    1.963925000000E+00 -1.963925000000E+00  0.000000000000E+00
    8   229 CU    1.963925000000E+00  1.963925000000E+00  0.000000000000E+00
    9   208 O     0.000000000000E+00 -1.963925000000E+00  0.000000000000E+00
   10   208 O     0.000000000000E+00  1.963925000000E+00  0.000000000000E+00
   11   208 O     3.927850000000E+00 -1.963925000000E+00  0.000000000000E+00
   12   208 O     3.927850000000E+00  1.963925000000E+00  0.000000000000E+00
   13   208 O    -1.963925000000E+00  0.000000000000E+00  0.000000000000E+00
   14   208 O    -1.963925000000E+00  3.927850000000E+00  0.000000000000E+00
   15   208 O     1.963925000000E+00  0.000000000000E+00  0.000000000000E+00
   16   208 O     1.963925000000E+00  3.927850000000E+00  0.000000000000E+00

 *******************************************************************************
 *** PSEUDOPOTENTIAL INFORMATION ***
 *******************************************************************************

 ATOMIC NUMBER  29, NUCLEAR CHARGE 19.000, GIVEN IN INPUT       PSEUDOPOTENTIAL
   TYPE       EXPONENT      COEFF.    N      EXPONENT      COEFF.    N
  W0 TMS     6.2514963   19.0000000  -1     6.7272533  118.7784294   1
             6.6102459 -105.8998240   0
  P0 TMS    12.3656871  127.3506942   0
  P1 TMS    11.1607294   71.2298490   0

 ATOMIC NUMBER   8, NUCLEAR CHARGE  6.000, GIVEN IN INPUT       PSEUDOPOTENTIAL
   TYPE       EXPONENT      COEFF.    N      EXPONENT      COEFF.    N
  W0 TMS     9.2979390    6.0000000  -1     8.8649220   55.7876342   1
             8.6292567  -38.8197850   0
  P0 TMS     8.7192445   38.4191413   0

 ATOMIC NUMBER  38, NUCLEAR CHARGE  2.000, GIVEN IN INPUT       PSEUDOPOTENTIAL
   TYPE       EXPONENT      COEFF.    N      EXPONENT      COEFF.    N
  W0 TMS     4.3839388    2.0000000  -1     3.1964983    8.7678775   1
             0.9899150  -14.2552431   0
  P0 TMS     1.2868349  146.8716052   0
  P1 TMS     0.9567448  140.0262284   0
  P2 TMS     1.9483165   24.4454878   0
 INFORMATION **** CHARGED ****  CHARGED CELL - NO TOTAL ENERGY

 NUCLEAR CHARGE  1.320E+02 CHARGE ON SHELLS  1.330E+02
 WARNING **** INPBAS **** UNIT CELL NOT NEUTRAL

 *******************************************************************************
 LOCAL ATOMIC FUNCTIONS BASIS SET
 *******************************************************************************
   ATOM   X(AU)   Y(AU)   Z(AU)  N. TYPE  EXPONENT  S COEF   P COEF   D/F/G COEF
 *******************************************************************************
   1 SR   0.000   0.000   3.244
                                  1 S  
                                         2.177E-01-9.389E-02 0.000E+00 0.000E+00
                                         4.871E-01-2.476E-01 0.000E+00 0.000E+00
                                         1.090E+00 1.601E-01 0.000E+00 0.000E+00
                                         2.439E+00-4.360E-02 0.000E+00 0.000E+00
                                         5.457E+00 8.684E-03 0.000E+00 0.000E+00
                                         1.221E+01-1.296E-03 0.000E+00 0.000E+00
                           2-     4 P  
                                         2.236E-01 0.000E+00-4.747E-02 0.000E+00
                                         4.507E-01 0.000E+00-1.710E-01 0.000E+00
                                         9.086E-01 0.000E+00 1.048E-01 0.000E+00
                                         1.831E+00 0.000E+00-2.952E-02 0.000E+00
                                         3.692E+00 0.000E+00 6.196E-03 0.000E+00
                                         7.442E+00 0.000E+00-9.550E-04 0.000E+00
                           5-     9 D  
                                         5.283E-01 0.000E+00 0.000E+00 1.000E+00
                                 10 S  
                                         2.000E-01 1.000E+00 0.000E+00 0.000E+00
                                 11 S  
                                         6.000E-01 1.000E+00 0.000E+00 0.000E+00
                          12-    14 P  
                                         2.000E-01 0.000E+00 1.000E+00 0.000E+00
                          15-    17 P  
                                         6.000E-01 0.000E+00 1.000E+00 0.000E+00
   2 SR   0.000   7.423   3.244
   3 SR   7.423   0.000   3.244
   4 SR   7.423   7.423   3.244
   5 CU  -3.711  -3.711   0.000
                                 69 S  
                                         2.785E+01-1.934E-02 0.000E+00 0.000E+00
                                         2.142E+01 8.861E-02 0.000E+00 0.000E+00
                                         1.054E+01-3.559E-01 0.000E+00 0.000E+00
                                         2.536E+00 5.381E-01 0.000E+00 0.000E+00
                                         1.250E+00 5.111E-01 0.000E+00 0.000E+00
                                         5.998E-01 1.476E-01 0.000E+00 0.000E+00
                                 70 S  
                                         2.785E+01-2.653E-03 0.000E+00 0.000E+00
                                         2.142E+01-7.542E-03 0.000E+00 0.000E+00
                                         1.054E+01 7.976E-02 0.000E+00 0.000E+00
                                         2.536E+00-1.553E-01 0.000E+00 0.000E+00
                                         1.250E+00-2.531E-01 0.000E+00 0.000E+00
                                         5.998E-01-2.817E-02 0.000E+00 0.000E+00
                          71-    73 P  
                                         1.859E+01 0.000E+00 3.652E-03 0.000E+00
                                         1.430E+01 0.000E+00-3.708E-02 0.000E+00
                                         5.631E+00 0.000E+00 2.171E-01 0.000E+00
                                         2.683E+00 0.000E+00 4.410E-01 0.000E+00
                                         1.259E+00 0.000E+00 3.587E-01 0.000E+00
                                         5.741E-01 0.000E+00 1.148E-01 0.000E+00
                                         2.092E-01 0.000E+00 7.316E-03 0.000E+00
                          74-    78 D  
                                         1.579E+01 0.000E+00 0.000E+00 8.422E-02
                                         7.203E+00 0.000E+00 0.000E+00 2.554E-01
                                         2.974E+00 0.000E+00 0.000E+00 3.500E-01
                                         1.207E+00 0.000E+00 0.000E+00 3.417E-01
                                         4.640E-01 0.000E+00 0.000E+00 2.417E-01
                          79-    85 F  
                                         1.692E+00 0.000E+00 0.000E+00 1.000E+00
                                 86 S  
                                         2.000E-01 1.000E+00 0.000E+00 0.000E+00
                                 87 S  
                                         6.000E-01 1.000E+00 0.000E+00 0.000E+00
                          88-    90 P  
                                         2.000E-01 0.000E+00 1.000E+00 0.000E+00
                          91-    93 P  
                                         6.000E-01 0.000E+00 1.000E+00 0.000E+00
                          94-    98 D  
                                         2.000E-01 0.000E+00 0.000E+00 1.000E+00
                          99-   103 D  
                                         6.000E-01 0.000E+00 0.000E+00 1.000E+00
   6 CU  -3.711   3.711   0.000
   7 CU   3.711  -3.711   0.000
   8 CU   3.711   3.711   0.000
   9 O    0.000  -3.711   0.000
                                209 S  
                                         2.680E-01 3.048E-01 0.000E+00 0.000E+00
                                         5.731E-01 4.538E-01 0.000E+00 0.000E+00
                                         1.225E+00 2.959E-01 0.000E+00 0.000E+00
                                         2.620E+00 1.957E-02 0.000E+00 0.000E+00
                                         5.603E+00-1.286E-01 0.000E+00 0.000E+00
                                         1.198E+01 1.202E-02 0.000E+00 0.000E+00
                                         2.562E+01 4.070E-04 0.000E+00 0.000E+00
                                         5.478E+01-7.600E-05 0.000E+00 0.000E+00
                         210-   212 P  
                                         3.337E-01 0.000E+00 2.560E-01 0.000E+00
                                         6.666E-01 0.000E+00 2.819E-01 0.000E+00
                                         1.332E+00 0.000E+00 2.428E-01 0.000E+00
                                         2.661E+00 0.000E+00 1.611E-01 0.000E+00
                                         5.316E+00 0.000E+00 8.231E-02 0.000E+00
                                         1.062E+01 0.000E+00 3.990E-02 0.000E+00
                                         2.122E+01 0.000E+00 4.679E-03 0.000E+00
                         213-   217 D  
                                         6.693E-01 0.000E+00 0.000E+00 1.000E+00
                         218-   224 F  
                                         1.423E+00 0.000E+00 0.000E+00 1.000E+00
                                225 S  
                                         2.000E-01 1.000E+00 0.000E+00 0.000E+00
                                226 S  
                                         6.000E-01 1.000E+00 0.000E+00 0.000E+00
                         227-   229 P  
                                         2.000E-01 0.000E+00 1.000E+00 0.000E+00
                         230-   232 P  
                                         6.000E-01 0.000E+00 1.000E+00 0.000E+00
  10 O    0.000   3.711   0.000
  11 O    7.423  -3.711   0.000
  12 O    7.423   3.711   0.000
  13 O   -3.711   0.000   0.000
  14 O   -3.711   7.423   0.000
  15 O    3.711   0.000   0.000
  16 O    3.711   7.423   0.000
 INFORMATION **** SET_MPP **** PCRYSTAL CALCULATION
 INFORMATION **** READM2 **** NEW DEFAULT: FOCK/KS MATRIX MIXING SET TO 30 %
 INFORMATION **** READM2 **** NEW DEFAULT: FULL DIRECT SCF MODE
 INFORMATION **** READM2 **** NEW DEFAULT: COULOMB BIPOLAR BUFFER SET TO 32 Mb
 INFORMATION **** READM2 **** NEW DEFAULT: EXCHANGE BIPOLAR BUFFER SET TO 32 Mb

 *******************************************************************************
 NEW DEFAULT: DFT INTEGRATION GRID INCREASED TO XLGRID
 NEW DEFAULT: DIIS ACCELERATOR ACTIVE
 USE KEYWORD NODIIS TO TURN IT OFF
 *******************************************************************************

 WARNING **** RDDFTP **** HSE06-HJS ACTIVE
 RANGE SEPARATION - OMEGA:   0.110000000000000     
 INFORMATION **** READM2 **** FULL DIRECT SCF (MONO AND BIEL INT) SELECTED
 INFORMATION **** BIPOSIZE **** COULOMB BIPOLAR BUFFER SET TO   100000000
 INFORMATION **** EXCHSIZE **** EXCHANGE BIPOLAR BUFFER SIZE SET TO    10000000
 INFORMATION **** TOLDEE **** SCF TOL ON TOTAL ENERGY SET TO          10
 INFORMATION **** TOLINTEG **** COULOMB AND EXCHANGE SERIES TOLERANCES MODIFIED
 INFORMATION **** MAXCYCLE **** MAX NUMBER OF SCF CYCLES SET TO         200
 INFORMATION **** SMEAR **** FERMI SMEARING ACTIVE
 FERMI SMEARING - TEMPERATURE SMEARING OF FERMI SURFACE  0.1000E-12
 INFORMATION **** SAVEWF **** not fully tested
 INFORMATION **** SPINLOCK **** LOCK IN A GIVEN SPIN STATE
 ALPHA-BETA ELECTRONS LOCKED TO   1 FOR 200 SCF CYCLES
 SSSSSSSSSSSSSSSSSSSSSSSSSSSSSSSSSSSSSSSSSSSSSSSSSSSSSSSSSSSSSSSSSSSSSSSSSSSSSS
 ATOMIC SPINS SET TO (ATOM, AT. N., SPIN)
   1 238 0   2 238 0   3 238 0   4 238 0   5 229-1   6 229 1   7 229 1   8 229 1
   9 208 0  10 208 0  11 208 0  12 208 0  13 208 0  14 208 0  15 208 0  16 208 0
 *******************************************************************************
 N. OF ATOMS PER CELL        16  COULOMB OVERLAP TOL         (T1) 10**   -8
 NUMBER OF SHELLS           136  COULOMB PENETRATION TOL     (T2) 10**   -8
 NUMBER OF AO               400  EXCHANGE OVERLAP TOL        (T3) 10**   -8
 N. OF ELECTRONS PER CELL   133  EXCHANGE PSEUDO OVP (F(G))  (T4) 10**   -8
 CORE ELECTRONS PER CELL      0  EXCHANGE PSEUDO OVP (P(G))  (T5) 10**  -16
 N. OF SYMMETRY OPERATORS     1  POLE ORDER IN MONO ZONE                  4
 *******************************************************************************
 TYPE OF CALCULATION :  UNRESTRICTED OPEN SHELL
 KOHN-SHAM HAMILTONIAN

 (EXCHANGE)[CORRELATION] FUNCTIONAL:(HSE06 SR/GGA)[PERDEW-BURKE-ERNZERHOF]

 RANGE-SEPARATED HYBRID FUNCTIONAL 
 OMEGA (SHORT-RANGE)[LONG-RANGE]:(    0.1100)[    0.0000]

 HYBRID EXCHANGE - PERCENTAGE OF FOCK EXCHANGE    25.0000

 SPIN POLARIZED DFT SELECTED
 CORE  PSEUDO POTENTIAL         TOL. ON PSEUDO              (TP) 10**- 6
 SPIN POLARIZATION - ALPHA-BETA =  1 FOR 200 CYCLES

 CAPPA:IS1  6;IS2  6;IS3  4; K PTS MONK NET  76; SYMMOPS:K SPACE   2;G SPACE   1

 *******************************************************************************
 MAX NUMBER OF SCF CYCLES     200  CONVERGENCE ON DELTAP        10**-20
 WEIGHT OF F(I) IN F(I+1)      90% CONVERGENCE ON ENERGY        10**-10
 SPIN POLARIZATION - ALPHA-BETA =  1 FOR 200 CYCLES
 SHRINK. FACT.(MONKH.)    6  6  4  NUMBER OF K POINTS IN THE IBZ     76
 SHRINKING FACTOR(GILAT NET)   12  NUMBER OF K POINTS(GILAT NET)    580
 *******************************************************************************
 *** K POINTS COORDINATES (OBLIQUE COORDINATES IN UNITS OF IS =  6)
   1-R(  0  0  0)   2-C(  1  0  0)   3-C(  2  0  0)   4-R(  3  0  0)
   5-C(  0  1  0)   6-C(  1  1  0)   7-C(  2  1  0)   8-C(  3  1  0)
   9-C(  4  1  0)  10-C(  5  1  0)  11-C(  0  2  0)  12-C(  1  2  0)
  13-C(  2  2  0)  14-C(  3  2  0)  15-C(  4  2  0)  16-C(  5  2  0)
  17-R(  0  3  0)  18-C(  1  3  0)  19-C(  2  3  0)  20-R(  3  3  0)
  21-C(  0  0  1)  22-C(  1  0  1)  23-C(  2  0  1)  24-C(  3  0  1)
  25-C(  4  0  1)  26-C(  5  0  1)  27-C(  0  1  1)  28-C(  1  1  1)
  29-C(  2  1  1)  30-C(  3  1  1)  31-C(  4  1  1)  32-C(  5  1  1)
  33-C(  0  2  1)  34-C(  1  2  1)  35-C(  2  2  1)  36-C(  3  2  1)
  37-C(  4  2  1)  38-C(  5  2  1)  39-C(  0  3  1)  40-C(  1  3  1)
  41-C(  2  3  1)  42-C(  3  3  1)  43-C(  4  3  1)  44-C(  5  3  1)
  45-C(  0  4  1)  46-C(  1  4  1)  47-C(  2  4  1)  48-C(  3  4  1)
  49-C(  4  4  1)  50-C(  5  4  1)  51-C(  0  5  1)  52-C(  1  5  1)
  53-C(  2  5  1)  54-C(  3  5  1)  55-C(  4  5  1)  56-C(  5  5  1)
  57-R(  0  0  2)  58-C(  1  0  2)  59-C(  2  0  2)  60-R(  3  0  2)
  61-C(  0  1  2)  62-C(  1  1  2)  63-C(  2  1  2)  64-C(  3  1  2)
  65-C(  4  1  2)  66-C(  5  1  2)  67-C(  0  2  2)  68-C(  1  2  2)
  69-C(  2  2  2)  70-C(  3  2  2)  71-C(  4  2  2)  72-C(  5  2  2)
  73-R(  0  3  2)  74-C(  1  3  2)  75-C(  2  3  2)  76-R(  3  3  2)

 DIRECT LATTICE VECTORS COMPON. (A.U.)     RECIP. LATTICE VECTORS COMPON. (A.U.) 
        X            Y            Z              X            Y            Z
   14.8451216    0.0000000    0.0000000      0.4232492    0.0000000    0.0000000
    0.0000000   14.8451216    0.0000000      0.0000000    0.4232492    0.0000000
    0.0000000    0.0000000    6.4889416      0.0000000    0.0000000    0.9682912

 DISK SPACE FOR EIGENVECTORS (FTN 10)    23040000 REALS

 SYMMETRY ADAPTION OF THE BLOCH FUNCTIONS DISABLED
 TTTTTTTTTTTTTTTTTTTTTTTTTTTTTT gordsh1     TELAPSE        2.98 TCPU        0.04

 MATRIX SIZE: P(G) 1263000, F(G)  225436, P(G) IRR  636632, F(G) IRR  227040
 MAX G-VECTOR INDEX FOR 1- AND 2-ELECTRON INTEGRALS 103

 TTTTTTTTTTTTTTTTTTTTTTTTTTTTTT INPUT       TELAPSE        3.08 TCPU        0.12

 NEIGHBORS OF THE NON-EQUIVALENT ATOMS

 N = NUMBER OF NEIGHBORS AT DISTANCE R
    ATOM  N     R/ANG      R/AU   NEIGHBORS (ATOM LABELS AND CELL INDICES)
   1 SR   8     2.6086     4.9295    9 O    0 0 0    9 O    0 0 1   10 O    0 0 0
                                    10 O    0 0 1   13 O    0 0 0   13 O    0 0 1
                                    15 O    0 0 0   15 O    0 0 1
   1 SR   8     3.2652     6.1704    5 CU   0 0 0    5 CU   0 0 1    6 CU   0 0 0
                                     6 CU   0 0 1    7 CU   0 0 0    7 CU   0 0 1
                                     8 CU   0 0 0    8 CU   0 0 1
   1 SR   2     3.4338     6.4889    1 SR   0 0-1    1 SR   0 0 1
   1 SR   4     3.9278     7.4226    2 SR   0 0 0    2 SR   0-1 0    3 SR   0 0 0
                                     3 SR  -1 0 0
   1 SR  16     4.7152     8.9104   11 O    0 0 0   11 O    0 0 1   11 O   -1 0 0
                                    11 O   -1 0 1   12 O    0 0 0   12 O    0 0 1
                                    12 O   -1 0 0   12 O   -1 0 1   14 O    0 0 0
                                    14 O    0 0 1   14 O    0-1 0   14 O    0-1 1
                                    16 O    0 0 0   16 O    0 0 1   16 O    0-1 0
                                    16 O    0-1 1
   1 SR   8     5.2172     9.8590    2 SR   0 0 1    2 SR   0 0-1    2 SR   0-1-1
                                     2 SR   0-1 1    3 SR   0 0 1    3 SR   0 0-1
                                     3 SR  -1 0-1    3 SR  -1 0 1

   2 SR   8     2.6086     4.9295    9 O    0 1 0    9 O    0 1 1   10 O    0 0 0
                                    10 O    0 0 1   14 O    0 0 0   14 O    0 0 1
                                    16 O    0 0 0   16 O    0 0 1
   2 SR   8     3.2652     6.1704    5 CU   0 1 0    5 CU   0 1 1    6 CU   0 0 0
                                     6 CU   0 0 1    7 CU   0 1 0    7 CU   0 1 1
                                     8 CU   0 0 0    8 CU   0 0 1
   2 SR   2     3.4338     6.4889    2 SR   0 0-1    2 SR   0 0 1
   2 SR   4     3.9278     7.4226    1 SR   0 0 0    1 SR   0 1 0    4 SR   0 0 0
                                     4 SR  -1 0 0
   2 SR  16     4.7152     8.9104   11 O    0 1 0   11 O    0 1 1   11 O   -1 1 0
                                    11 O   -1 1 1   12 O    0 0 0   12 O    0 0 1
                                    12 O   -1 0 0   12 O   -1 0 1   13 O    0 0 0
                                    13 O    0 0 1   13 O    0 1 0   13 O    0 1 1
                                    15 O    0 0 0   15 O    0 0 1   15 O    0 1 0
                                    15 O    0 1 1
   2 SR   8     5.2172     9.8590    1 SR   0 0-1    1 SR   0 0 1    1 SR   0 1 1
                                     1 SR   0 1-1    4 SR   0 0 1    4 SR   0 0-1
                                     4 SR  -1 0-1    4 SR  -1 0 1

   3 SR   8     2.6086     4.9295   11 O    0 0 0   11 O    0 0 1   12 O    0 0 0
                                    12 O    0 0 1   13 O    1 0 0   13 O    1 0 1
                                    15 O    0 0 0   15 O    0 0 1
   3 SR   8     3.2652     6.1704    5 CU   1 0 0    5 CU   1 0 1    6 CU   1 0 0
                                     6 CU   1 0 1    7 CU   0 0 0    7 CU   0 0 1
                                     8 CU   0 0 0    8 CU   0 0 1
   3 SR   2     3.4338     6.4889    3 SR   0 0-1    3 SR   0 0 1
   3 SR   4     3.9278     7.4226    1 SR   0 0 0    1 SR   1 0 0    4 SR   0 0 0
                                     4 SR   0-1 0
   3 SR  16     4.7152     8.9104    9 O    0 0 0    9 O    0 0 1    9 O    1 0 0
                                     9 O    1 0 1   10 O    0 0 0   10 O    0 0 1
                                    10 O    1 0 0   10 O    1 0 1   14 O    1 0 0
                                    14 O    1 0 1   14 O    1-1 0   14 O    1-1 1
                                    16 O    0 0 0   16 O    0 0 1   16 O    0-1 0
                                    16 O    0-1 1
   3 SR   8     5.2172     9.8590    1 SR   0 0-1    1 SR   0 0 1    1 SR   1 0 1
                                     1 SR   1 0-1    4 SR   0 0 1    4 SR   0 0-1
                                     4 SR   0-1-1    4 SR   0-1 1

   4 SR   8     2.6086     4.9295   11 O    0 1 0   11 O    0 1 1   12 O    0 0 0
                                    12 O    0 0 1   14 O    1 0 0   14 O    1 0 1
                                    16 O    0 0 0   16 O    0 0 1
   4 SR   8     3.2652     6.1704    5 CU   1 1 0    5 CU   1 1 1    6 CU   1 0 0
                                     6 CU   1 0 1    7 CU   0 1 0    7 CU   0 1 1
                                     8 CU   0 0 0    8 CU   0 0 1
   4 SR   2     3.4338     6.4889    4 SR   0 0-1    4 SR   0 0 1
   4 SR   4     3.9278     7.4226    2 SR   0 0 0    2 SR   1 0 0    3 SR   0 0 0
                                     3 SR   0 1 0
   4 SR  16     4.7152     8.9104    9 O    0 1 0    9 O    0 1 1    9 O    1 1 0
                                     9 O    1 1 1   10 O    0 0 0   10 O    0 0 1
                                    10 O    1 0 0   10 O    1 0 1   13 O    1 0 0
                                    13 O    1 0 1   13 O    1 1 0   13 O    1 1 1
                                    15 O    0 0 0   15 O    0 0 1   15 O    0 1 0
                                    15 O    0 1 1
   4 SR   8     5.2172     9.8590    2 SR   0 0-1    2 SR   0 0 1    2 SR   1 0 1
                                     2 SR   1 0-1    3 SR   0 0-1    3 SR   0 0 1
                                     3 SR   0 1 1    3 SR   0 1-1

   5 CU   4     1.9639     3.7113    9 O    0 0 0   11 O   -1 0 0   13 O    0 0 0
                                    14 O    0-1 0
   5 CU   8     3.2652     6.1704    1 SR   0 0 0    1 SR   0 0-1    2 SR   0-1 0
                                     2 SR   0-1-1    3 SR  -1 0 0    3 SR  -1 0-1
                                     4 SR  -1-1 0    4 SR  -1-1-1
   5 CU   2     3.4338     6.4889    5 CU   0 0-1    5 CU   0 0 1
   5 CU   4     3.9278     7.4226    6 CU   0 0 0    6 CU   0-1 0    7 CU   0 0 0
                                     7 CU  -1 0 0
   5 CU   8     3.9558     7.4753    9 O    0 0 1    9 O    0 0-1   11 O   -1 0-1
                                    11 O   -1 0 1   13 O    0 0 1   13 O    0 0-1
                                    14 O    0-1-1   14 O    0-1 1
   5 CU   8     4.3915     8.2987   10 O    0 0 0   10 O    0-1 0   12 O   -1 0 0
                                    12 O   -1-1 0   15 O    0 0 0   15 O   -1 0 0
                                    16 O    0-1 0   16 O   -1-1 0

   6 CU   4     1.9639     3.7113   10 O    0 0 0   12 O   -1 0 0   13 O    0 0 0
                                    14 O    0 0 0
   6 CU   8     3.2652     6.1704    1 SR   0 0 0    1 SR   0 0-1    2 SR   0 0 0
                                     2 SR   0 0-1    3 SR  -1 0 0    3 SR  -1 0-1
                                     4 SR  -1 0 0    4 SR  -1 0-1
   6 CU   2     3.4338     6.4889    6 CU   0 0-1    6 CU   0 0 1
   6 CU   4     3.9278     7.4226    5 CU   0 0 0    5 CU   0 1 0    8 CU   0 0 0
                                     8 CU  -1 0 0
   6 CU   8     3.9558     7.4753   10 O    0 0 1   10 O    0 0-1   12 O   -1 0-1
                                    12 O   -1 0 1   13 O    0 0-1   13 O    0 0 1
                                    14 O    0 0 1   14 O    0 0-1
   6 CU   8     4.3915     8.2987    9 O    0 0 0    9 O    0 1 0   11 O   -1 0 0
                                    11 O   -1 1 0   15 O    0 0 0   15 O   -1 0 0
                                    16 O    0 0 0   16 O   -1 0 0

   7 CU   4     1.9639     3.7113    9 O    0 0 0   11 O    0 0 0   15 O    0 0 0
                                    16 O    0-1 0
   7 CU   8     3.2652     6.1704    1 SR   0 0 0    1 SR   0 0-1    2 SR   0-1 0
                                     2 SR   0-1-1    3 SR   0 0 0    3 SR   0 0-1
                                     4 SR   0-1 0    4 SR   0-1-1
   7 CU   2     3.4338     6.4889    7 CU   0 0-1    7 CU   0 0 1
   7 CU   4     3.9278     7.4226    5 CU   0 0 0    5 CU   1 0 0    8 CU   0 0 0
                                     8 CU   0-1 0
   7 CU   8     3.9558     7.4753    9 O    0 0-1    9 O    0 0 1   11 O    0 0 1
                                    11 O    0 0-1   15 O    0 0 1   15 O    0 0-1
                                    16 O    0-1-1   16 O    0-1 1
   7 CU   8     4.3915     8.2987   10 O    0 0 0   10 O    0-1 0   12 O    0 0 0
                                    12 O    0-1 0   13 O    0 0 0   13 O    1 0 0
                                    14 O    0-1 0   14 O    1-1 0

   8 CU   4     1.9639     3.7113   10 O    0 0 0   12 O    0 0 0   15 O    0 0 0
                                    16 O    0 0 0
   8 CU   8     3.2652     6.1704    1 SR   0 0 0    1 SR   0 0-1    2 SR   0 0 0
                                     2 SR   0 0-1    3 SR   0 0 0    3 SR   0 0-1
                                     4 SR   0 0 0    4 SR   0 0-1
   8 CU   2     3.4338     6.4889    8 CU   0 0-1    8 CU   0 0 1
   8 CU   4     3.9278     7.4226    6 CU   0 0 0    6 CU   1 0 0    7 CU   0 0 0
                                     7 CU   0 1 0
   8 CU   8     3.9558     7.4753   10 O    0 0-1   10 O    0 0 1   12 O    0 0 1
                                    12 O    0 0-1   15 O    0 0-1   15 O    0 0 1
                                    16 O    0 0 1   16 O    0 0-1
   8 CU   8     4.3915     8.2987    9 O    0 0 0    9 O    0 1 0   11 O    0 0 0
                                    11 O    0 1 0   13 O    0 0 0   13 O    1 0 0
                                    14 O    0 0 0   14 O    1 0 0

   9 O    2     1.9639     3.7113    5 CU   0 0 0    7 CU   0 0 0
   9 O    4     2.6086     4.9295    1 SR   0 0 0    1 SR   0 0-1    2 SR   0-1 0
                                     2 SR   0-1-1
   9 O    4     2.7774     5.2485   13 O    0 0 0   14 O    0-1 0   15 O    0 0 0
                                    16 O    0-1 0
   9 O    2     3.4338     6.4889    9 O    0 0-1    9 O    0 0 1
   9 O    4     3.9278     7.4226   10 O    0 0 0   10 O    0-1 0   11 O    0 0 0
                                    11 O   -1 0 0
   9 O    4     3.9558     7.4753    5 CU   0 0-1    5 CU   0 0 1    7 CU   0 0 1
                                     7 CU   0 0-1

  10 O    2     1.9639     3.7113    6 CU   0 0 0    8 CU   0 0 0
  10 O    4     2.6086     4.9295    1 SR   0 0 0    1 SR   0 0-1    2 SR   0 0 0
                                     2 SR   0 0-1
  10 O    4     2.7774     5.2485   13 O    0 0 0   14 O    0 0 0   15 O    0 0 0
                                    16 O    0 0 0
  10 O    2     3.4338     6.4889   10 O    0 0-1   10 O    0 0 1
  10 O    4     3.9278     7.4226    9 O    0 0 0    9 O    0 1 0   12 O    0 0 0
                                    12 O   -1 0 0
  10 O    4     3.9558     7.4753    6 CU   0 0-1    6 CU   0 0 1    8 CU   0 0 1
                                     8 CU   0 0-1

  11 O    2     1.9639     3.7113    5 CU   1 0 0    7 CU   0 0 0
  11 O    4     2.6086     4.9295    3 SR   0 0 0    3 SR   0 0-1    4 SR   0-1 0
                                     4 SR   0-1-1
  11 O    4     2.7774     5.2485   13 O    1 0 0   14 O    1-1 0   15 O    0 0 0
                                    16 O    0-1 0
  11 O    2     3.4338     6.4889   11 O    0 0-1   11 O    0 0 1
  11 O    4     3.9278     7.4226    9 O    0 0 0    9 O    1 0 0   12 O    0 0 0
                                    12 O    0-1 0
  11 O    4     3.9558     7.4753    5 CU   1 0 1    5 CU   1 0-1    7 CU   0 0-1
                                     7 CU   0 0 1

  12 O    2     1.9639     3.7113    6 CU   1 0 0    8 CU   0 0 0
  12 O    4     2.6086     4.9295    3 SR   0 0 0    3 SR   0 0-1    4 SR   0 0 0
                                     4 SR   0 0-1
  12 O    4     2.7774     5.2485   13 O    1 0 0   14 O    1 0 0   15 O    0 0 0
                                    16 O    0 0 0
  12 O    2     3.4338     6.4889   12 O    0 0-1   12 O    0 0 1
  12 O    4     3.9278     7.4226   10 O    0 0 0   10 O    1 0 0   11 O    0 0 0
                                    11 O    0 1 0
  12 O    4     3.9558     7.4753    6 CU   1 0 1    6 CU   1 0-1    8 CU   0 0-1
                                     8 CU   0 0 1

  13 O    2     1.9639     3.7113    5 CU   0 0 0    6 CU   0 0 0
  13 O    4     2.6086     4.9295    1 SR   0 0 0    1 SR   0 0-1    3 SR  -1 0 0
                                     3 SR  -1 0-1
  13 O    4     2.7774     5.2485    9 O    0 0 0   10 O    0 0 0   11 O   -1 0 0
                                    12 O   -1 0 0
  13 O    2     3.4338     6.4889   13 O    0 0-1   13 O    0 0 1
  13 O    4     3.9278     7.4226   14 O    0 0 0   14 O    0-1 0   15 O    0 0 0
                                    15 O   -1 0 0
  13 O    4     3.9558     7.4753    5 CU   0 0-1    5 CU   0 0 1    6 CU   0 0 1
                                     6 CU   0 0-1

  14 O    2     1.9639     3.7113    5 CU   0 1 0    6 CU   0 0 0
  14 O    4     2.6086     4.9295    2 SR   0 0 0    2 SR   0 0-1    4 SR  -1 0 0
                                     4 SR  -1 0-1
  14 O    4     2.7774     5.2485    9 O    0 1 0   10 O    0 0 0   11 O   -1 1 0
                                    12 O   -1 0 0
  14 O    2     3.4338     6.4889   14 O    0 0-1   14 O    0 0 1
  14 O    4     3.9278     7.4226   13 O    0 0 0   13 O    0 1 0   16 O    0 0 0
                                    16 O   -1 0 0
  14 O    4     3.9558     7.4753    5 CU   0 1 1    5 CU   0 1-1    6 CU   0 0-1
                                     6 CU   0 0 1

  15 O    2     1.9639     3.7113    7 CU   0 0 0    8 CU   0 0 0
  15 O    4     2.6086     4.9295    1 SR   0 0 0    1 SR   0 0-1    3 SR   0 0 0
                                     3 SR   0 0-1
  15 O    4     2.7774     5.2485    9 O    0 0 0   10 O    0 0 0   11 O    0 0 0
                                    12 O    0 0 0
  15 O    2     3.4338     6.4889   15 O    0 0-1   15 O    0 0 1
  15 O    4     3.9278     7.4226   13 O    0 0 0   13 O    1 0 0   16 O    0 0 0
                                    16 O    0-1 0
  15 O    4     3.9558     7.4753    7 CU   0 0-1    7 CU   0 0 1    8 CU   0 0 1
                                     8 CU   0 0-1

  16 O    2     1.9639     3.7113    7 CU   0 1 0    8 CU   0 0 0
  16 O    4     2.6086     4.9295    2 SR   0 0 0    2 SR   0 0-1    4 SR   0 0 0
                                     4 SR   0 0-1
  16 O    4     2.7774     5.2485    9 O    0 1 0   10 O    0 0 0   11 O    0 1 0
                                    12 O    0 0 0
  16 O    2     3.4338     6.4889   16 O    0 0-1   16 O    0 0 1
  16 O    4     3.9278     7.4226   14 O    0 0 0   14 O    1 0 0   15 O    0 0 0
                                    15 O    0 1 0
  16 O    4     3.9558     7.4753    7 CU   0 1 1    7 CU   0 1-1    8 CU   0 0-1
                                     8 CU   0 0 1


 SYMMETRY ALLOWED INTERNAL DEGREE(S) OF FREEDOM:  45
 TTTTTTTTTTTTTTTTTTTTTTTTTTTTTT SYMM        TELAPSE        3.70 TCPU        0.73
 TTTTTTTTTTTTTTTTTTTTTTTTTTTTTT INT_SCREEN  TELAPSE        3.72 TCPU        0.75

 DFT PARAMETERS

     ATOM       ELECTRONS   NET CHARGE   R(ANGSTROM)
   1 238  SR      0.0000      2.0000     1.18000000
   5 229  CU     17.2500      1.7500     0.74000000
   9 208  O       8.0000     -2.0000     1.40000000
[golub044:50283] 31 more processes have sent help message help-mpi-btl-openib.txt / no device params found
[golub044:50283] Set MCA parameter "orte_base_help_aggregate" to 0 to see all help / error messages

 SIZE OF GRID=     344928
 TTTTTTTTTTTTTTTTTTTTTTTTTTTTTT MAKE_GRID2  TELAPSE        8.26 TCPU        5.29
 BECKE WEIGHT FUNCTION
 RADSAFE =     2.00
 TOLERANCES - DENSITY:10**- 6; POTENTIAL:10**- 9; GRID WGT:10**-14

 RADIAL INTEGRATION  - INTERVALS (POINTS,UPPER LIMIT):            1( 75,  4.0*R)

 ANGULAR INTEGRATION - INTERVALS (ACCURACY LEVEL [N. POINTS] UPPER LIMIT):
  1(  4[  86]   0.2)  2(  8[ 194]   0.5)  3( 12[ 350]   0.9)  4( 16[ 974]   3.5)
  5( 12[ 350]9999.0)
 TTTTTTTTTTTTTTTTTTTTTTTTTTTTTT INT_CALC    TELAPSE        8.30 TCPU        5.33
 EEEEEEEEEE INT_CALC TERMINATION  DATE 24 01 2018 TIME 08:13:19.1

 *******************************************************************************
 Generated by CrystalWriter                                                      
 CRYSTAL - SCF - TYPE OF CALCULATION :  UNRESTRICTED OPEN SHELL
 *******************************************************************************

 CAPPA:IS1  6;IS2  6;IS3  4; K PTS MONK NET  76; SYMMOPS:K SPACE   2;G SPACE   1

 TTTTTTTTTTTTTTTTTTTTTTTTTTTTTT SDIK        TELAPSE        8.60 TCPU        5.62

 AAAAAAAAAAAAAAAAAAAAAAAAAAAAAAAAAAAAAAAAAAAAAAAAAAAAAAAAAAAAAAAAAAAAAAAAAAAAAAA
         ATOMIC WAVEFUNCTION(S)


 NUCLEAR CHARGE 19.0  SYMMETRY SPECIES            S    P    D
 N. ELECTRONS   17.2  NUMBER OF PRIMITIVE GTOS   14    9    7
                      NUMBER OF CONTRACTED GTOS   4    3    3
                      NUMBER OF CLOSED SHELLS     1    1    0
                      OPEN SHELL OCCUPATION       0    0    9

  ZNUC SCFIT  TOTAL HF ENERGY   KINETIC ENERGY   VIRIAL THEOREM ACCURACY
  19.0  24   -1.953432393E+02  1.248337040E+02 -2.564827712E+00  3.3E-06

 NUCLEAR CHARGE  6.0  SYMMETRY SPECIES            S    P
 N. ELECTRONS    8.0  NUMBER OF PRIMITIVE GTOS   10    9
                      NUMBER OF CONTRACTED GTOS   3    3
                      NUMBER OF CLOSED SHELLS     1    1
                      OPEN SHELL OCCUPATION       0    0

  ZNUC SCFIT  TOTAL HF ENERGY   KINETIC ENERGY   VIRIAL THEOREM ACCURACY
   6.0  43   -1.519668598E+01  1.229882609E+01 -2.235620852E+00  4.1E-06

 AAAAAAAAAAAAAAAAAAAAAAAAAAAAAAAAAAAAAAAAAAAAAAAAAAAAAAAAAAAAAAAAAAAAAAAAAAAAAAA

 CHARGE NORMALIZATION FACTOR   1.00757576
 TOTAL ATOMIC CHARGES:
   0.0000000   0.0000000   0.0000000   0.0000000  17.1287879  17.1287879
  17.1287879  17.1287879   8.0606061   8.0606061   8.0606061   8.0606061
   8.0606061   8.0606061   8.0606061   8.0606061
 SUMMED SPIN DENSITY           2.01515151
 TOTAL ATOMIC SPINS  :
   0.0000000   0.0000000   0.0000000   0.0000000  -1.0075758   1.0075758
   1.0075758   1.0075758   0.0000000   0.0000000   0.0000000   0.0000000
   0.0000000   0.0000000   0.0000000   0.0000000
 TTTTTTTTTTTTTTTTTTTTTTTTTTTTTT MOQGAD      TELAPSE        8.76 TCPU        5.78
 TTTTTTTTTTTTTTTTTTTTTTTTTTTTTT SHELLXN     TELAPSE     1067.20 TCPU     1056.00
 TTTTTTTTTTTTTTTTTTTTTTTTTTTTTT MONMO3      TELAPSE     1076.20 TCPU     1064.62
 NUMERICALLY INTEGRATED DENSITY     67.5075961828     65.4924416992
 TTTTTTTTTTTTTTTTTTTTTTTTTTTTTT NUMDFT      TELAPSE     1077.83 TCPU     1066.25
 CYC   0 ETOT(AU) -9.213122529391E+02 DETOT -9.21E+02 tst  0.00E+00 PX  1.00E+00
 CYCLE  0 WAVE FUNCTION SAVED IN FORTRAN UNIT 79
 TTTTTTTTTTTTTTTTTTTTTTTTTTTTTT DIIS        TELAPSE     1078.48 TCPU     1066.59
 TTTTTTTTTTTTTTTTTTTTTTTTTTTTTT FDIK        TELAPSE     1084.63 TCPU     1072.68
 SPIN LOCKING: NO ENERGY GAP COMPUTED
 TTTTTTTTTTTTTTTTTTTTTTTTTTTTTT PDIG        TELAPSE     1084.90 TCPU     1072.92
 CHARGE NORMALIZATION FACTOR   1.00000000
 TOTAL ATOMIC CHARGES:
   0.1782012   0.1781995   0.1781998   0.1782009  18.1480294  18.1231823
  18.1405945  18.3240363   7.4337582   7.4540696   7.4337582   7.4540696
   7.4317486   7.4317481   7.4561022   7.4561016
 SUMMED SPIN DENSITY           1.00000000
 TOTAL ATOMIC SPINS  :
  -0.0010121  -0.0010107  -0.0010107  -0.0010121  -0.3833696   0.4497451
   0.4323330   0.2841958   0.0011222   0.0541734   0.0011223   0.0541734
   0.0031330   0.0031330   0.0521419   0.0521419
 TTTTTTTTTTTTTTTTTTTTTTTTTTTTTT MOQGAD      TELAPSE     1084.92 TCPU     1072.94
 TTTTTTTTTTTTTTTTTTTTTTTTTTTTTT SHELLXN     TELAPSE     2162.03 TCPU     2144.32
 TTTTTTTTTTTTTTTTTTTTTTTTTTTTTT MONMO3      TELAPSE     2172.06 TCPU     2154.34
 NUMERICALLY INTEGRATED DENSITY     66.9997779051     65.9997467665
 TTTTTTTTTTTTTTTTTTTTTTTTTTTTTT NUMDFT      TELAPSE     2177.72 TCPU     2159.99
 CYC   1 ETOT(AU) -9.207630696557E+02 DETOT  5.49E-01 tst  0.00E+00 PX  1.00E+00
 CYCLE  1 WAVE FUNCTION SAVED IN FORTRAN UNIT 79
 TTTTTTTTTTTTTTTTTTTTTTTTTTTTTT DIIS        TELAPSE     2178.57 TCPU     2160.55
 DIIS TEST: 0.15074E+01 AT SCF   CYCLE   1 - MIX   90 %
 TTTTTTTTTTTTTTTTTTTTTTTTTTTTTT FDIK        TELAPSE     2180.46 TCPU     2162.11
 SPIN LOCKING: NO ENERGY GAP COMPUTED
 TTTTTTTTTTTTTTTTTTTTTTTTTTTTTT PDIG        TELAPSE     2180.70 TCPU     2162.35
 CHARGE NORMALIZATION FACTOR   1.00000000
 TOTAL ATOMIC CHARGES:
   0.1778821   0.1778850   0.1778852   0.1778819  18.2101813  18.2212673
  18.1886130  18.2532757   7.4180467   7.4355007   7.4180467   7.4355007
   7.4216326   7.4216319   7.4323848   7.4323843
 SUMMED SPIN DENSITY           1.00000000
 TOTAL ATOMIC SPINS  :
  -0.0007938  -0.0007946  -0.0007947  -0.0007938  -0.3429847   0.3777382
   0.4043426   0.3183180   0.0014519   0.0600661   0.0014519   0.0600661
  -0.0010929  -0.0010931   0.0624564   0.0624565
 TTTTTTTTTTTTTTTTTTTTTTTTTTTTTT MOQGAD      TELAPSE     2180.72 TCPU     2162.37
 TTTTTTTTTTTTTTTTTTTTTTTTTTTTTT SHELLXN     TELAPSE     3257.91 TCPU     3233.35
 TTTTTTTTTTTTTTTTTTTTTTTTTTTTTT MONMO3      TELAPSE     3266.16 TCPU     3241.60
 NUMERICALLY INTEGRATED DENSITY     66.9997901236     65.9997637637
 TTTTTTTTTTTTTTTTTTTTTTTTTTTTTT NUMDFT      TELAPSE     3271.77 TCPU     3247.20
 CYC   2 ETOT(AU) -9.208570113044E+02 DETOT -9.39E-02 tst  6.73E-04 PX  9.76E-02
 CYCLE  2 WAVE FUNCTION SAVED IN FORTRAN UNIT 79
 TTTTTTTTTTTTTTTTTTTTTTTTTTTTTT DIIS        TELAPSE     3272.62 TCPU     3247.77
 DIIS TEST: 0.50076E+00 AT SCF   CYCLE   2 - DIIS ACTIVE - HISTORY:     2 CYCLES
 TTTTTTTTTTTTTTTTTTTTTTTTTTTTTT FDIK        TELAPSE     3275.49 TCPU     3250.55
 SPIN LOCKING: NO ENERGY GAP COMPUTED
 TTTTTTTTTTTTTTTTTTTTTTTTTTTTTT PDIG        TELAPSE     3275.74 TCPU     3250.80
 CHARGE NORMALIZATION FACTOR   1.00000000
 TOTAL ATOMIC CHARGES:
   0.1827783   0.1827731   0.1827733   0.1827781  18.0370414  17.7487292
  18.1334682  18.5939526   7.4477848   7.4944244   7.4477847   7.4944245
   7.4408075   7.4408068   7.4948368   7.4948362
 SUMMED SPIN DENSITY           1.00000000
 TOTAL ATOMIC SPINS  :
  -0.0006537  -0.0006407  -0.0006408  -0.0006537  -0.3937267   0.5763014
   0.4151015   0.0838031   0.0139240   0.0719696   0.0139243   0.0719695
  -0.0156652  -0.0156646   0.0903261   0.0903259
 TTTTTTTTTTTTTTTTTTTTTTTTTTTTTT MOQGAD      TELAPSE     3275.76 TCPU     3250.82
 TTTTTTTTTTTTTTTTTTTTTTTTTTTTTT SHELLXN     TELAPSE     4351.45 TCPU     4321.94
 TTTTTTTTTTTTTTTTTTTTTTTTTTTTTT MONMO3      TELAPSE     4362.00 TCPU     4332.49
 NUMERICALLY INTEGRATED DENSITY     66.9998023902     65.9997887853
 TTTTTTTTTTTTTTTTTTTTTTTTTTTTTT NUMDFT      TELAPSE     4367.63 TCPU     4338.11
 CYC   3 ETOT(AU) -9.206600760265E+02 DETOT  1.97E-01 tst  1.45E-01 PX  4.15E-01
 CYCLE  3 WAVE FUNCTION SAVED IN FORTRAN UNIT 79
 TTTTTTTTTTTTTTTTTTTTTTTTTTTTTT DIIS        TELAPSE     4368.45 TCPU     4338.80
 DIIS TEST: 0.25046E+01 AT SCF   CYCLE   3 - DIIS ACTIVE - HISTORY:     3 CYCLES
 TTTTTTTTTTTTTTTTTTTTTTTTTTTTTT FDIK        TELAPSE     4370.61 TCPU     4340.78
 SPIN LOCKING: NO ENERGY GAP COMPUTED
 TTTTTTTTTTTTTTTTTTTTTTTTTTTTTT PDIG        TELAPSE     4370.88 TCPU     4341.02
 CHARGE NORMALIZATION FACTOR   1.00000000
 TOTAL ATOMIC CHARGES:
   0.1847658   0.1847707   0.1847709   0.1847657  18.0404972  18.1677776
  18.0494591  18.1409861   7.4754332   7.4895973   7.4754330   7.4895972
   7.4770124   7.4770120   7.4890614   7.4890604
 SUMMED SPIN DENSITY           1.00000000
 TOTAL ATOMIC SPINS  :
  -0.0006941  -0.0007011  -0.0007012  -0.0006941  -0.4202268   0.3406251
   0.4591256   0.3093455  -0.0068399   0.0877004  -0.0068396   0.0877005
  -0.0180643  -0.0180642   0.0941637   0.0941645
 TTTTTTTTTTTTTTTTTTTTTTTTTTTTTT MOQGAD      TELAPSE     4370.91 TCPU     4341.05
 TTTTTTTTTTTTTTTTTTTTTTTTTTTTTT SHELLXN     TELAPSE     5447.96 TCPU     5412.35
 TTTTTTTTTTTTTTTTTTTTTTTTTTTTTT MONMO3      TELAPSE     5457.27 TCPU     5421.54
 NUMERICALLY INTEGRATED DENSITY     66.9997872609     65.9997716811
 TTTTTTTTTTTTTTTTTTTTTTTTTTTTTT NUMDFT      TELAPSE     5462.93 TCPU     5427.20
 CYC   4 ETOT(AU) -9.209094974999E+02 DETOT -2.49E-01 tst  2.02E-02 PX  3.87E-01
 CYCLE  4 WAVE FUNCTION SAVED IN FORTRAN UNIT 79
 TTTTTTTTTTTTTTTTTTTTTTTTTTTTTT DIIS        TELAPSE     5464.74 TCPU     5428.89
 DIIS TEST: 0.98944E-01 AT SCF   CYCLE   4 - DIIS ACTIVE - HISTORY:     4 CYCLES
 TTTTTTTTTTTTTTTTTTTTTTTTTTTTTT FDIK        TELAPSE     5466.73 TCPU     5430.79
 SPIN LOCKING: NO ENERGY GAP COMPUTED
 TTTTTTTTTTTTTTTTTTTTTTTTTTTTTT PDIG        TELAPSE     5466.97 TCPU     5431.03
 CHARGE NORMALIZATION FACTOR   1.00000000
 TOTAL ATOMIC CHARGES:
   0.1870248   0.1870250   0.1870251   0.1870248  18.1831875  17.9658096
  18.2472814  18.1088250   7.4706636   7.4692773   7.4706636   7.4692771
   7.4554330   7.4554325   7.4780253   7.4780243
 SUMMED SPIN DENSITY           1.00000000
 TOTAL ATOMIC SPINS  :
  -0.0007509  -0.0007515  -0.0007517  -0.0007507  -0.3679525   0.4828079
   0.3177478   0.3187064  -0.0224814   0.0871741  -0.0224813   0.0871742
  -0.0241699  -0.0241691   0.0853237   0.0853249
 TTTTTTTTTTTTTTTTTTTTTTTTTTTTTT MOQGAD      TELAPSE     5466.99 TCPU     5431.05
 TTTTTTTTTTTTTTTTTTTTTTTTTTTTTT SHELLXN     TELAPSE     6547.90 TCPU     6502.85
 TTTTTTTTTTTTTTTTTTTTTTTTTTTTTT MONMO3      TELAPSE     6553.25 TCPU     6508.20
 NUMERICALLY INTEGRATED DENSITY     66.9997837166     65.9997693586
 TTTTTTTTTTTTTTTTTTTTTTTTTTTTTT NUMDFT      TELAPSE     6558.87 TCPU     6513.82
 CYC   5 ETOT(AU) -9.208875290520E+02 DETOT  2.20E-02 tst  8.38E-03 PX  2.03E-01
 CYCLE  5 WAVE FUNCTION SAVED IN FORTRAN UNIT 79
 TTTTTTTTTTTTTTTTTTTTTTTTTTTTTT DIIS        TELAPSE     6559.88 TCPU     6514.50
 DIIS TEST: 0.32184E+00 AT SCF   CYCLE   5 - DIIS ACTIVE - HISTORY:     5 CYCLES
 TTTTTTTTTTTTTTTTTTTTTTTTTTTTTT FDIK        TELAPSE     6562.36 TCPU     6516.90
 SPIN LOCKING: NO ENERGY GAP COMPUTED
 TTTTTTTTTTTTTTTTTTTTTTTTTTTTTT PDIG        TELAPSE     6562.60 TCPU     6517.14
 CHARGE NORMALIZATION FACTOR   1.00000000
 TOTAL ATOMIC CHARGES:
   0.1870001   0.1869996   0.1869997   0.1870000  18.1430391  18.1332088
  18.0534434  18.2298392   7.4481114   7.4741446   7.4481114   7.4741446
   7.4563672   7.4563667   7.4676124   7.4676118
 SUMMED SPIN DENSITY           1.00000000
 TOTAL ATOMIC SPINS  :
  -0.0007130  -0.0007167  -0.0007168  -0.0007130  -0.4067195   0.3901546
   0.4761221   0.2540095  -0.0157688   0.0894390  -0.0157687   0.0894390
  -0.0241271  -0.0241264   0.0951024   0.0951035
 TTTTTTTTTTTTTTTTTTTTTTTTTTTTTT MOQGAD      TELAPSE     6562.62 TCPU     6517.16
 TTTTTTTTTTTTTTTTTTTTTTTTTTTTTT SHELLXN     TELAPSE     7641.30 TCPU     7588.02
 TTTTTTTTTTTTTTTTTTTTTTTTTTTTTT MONMO3      TELAPSE     7649.99 TCPU     7596.71
 NUMERICALLY INTEGRATED DENSITY     66.9997859470     65.9997728871
 TTTTTTTTTTTTTTTTTTTTTTTTTTTTTT NUMDFT      TELAPSE     7655.64 TCPU     7602.36
 CYC   6 ETOT(AU) -9.209146623881E+02 DETOT -2.71E-02 tst  9.87E-03 PX  1.87E-01
 CYCLE  6 WAVE FUNCTION SAVED IN FORTRAN UNIT 79
 TTTTTTTTTTTTTTTTTTTTTTTTTTTTTT DIIS        TELAPSE     7657.00 TCPU     7603.51
 DIIS TEST: 0.57597E-01 AT SCF   CYCLE   6 - DIIS ACTIVE - HISTORY:     6 CYCLES
 TTTTTTTTTTTTTTTTTTTTTTTTTTTTTT FDIK        TELAPSE     7658.86 TCPU     7605.24
 SPIN LOCKING: NO ENERGY GAP COMPUTED
 TTTTTTTTTTTTTTTTTTTTTTTTTTTTTT PDIG        TELAPSE     7659.12 TCPU     7605.50
 CHARGE NORMALIZATION FACTOR   1.00000000
 TOTAL ATOMIC CHARGES:
   0.1858087   0.1858089   0.1858090   0.1858087  18.0757903  18.1036796
  18.1605831  18.2048520   7.4581164   7.4701566   7.4581164   7.4701565
   7.4548390   7.4548385   7.4728184   7.4728178
 SUMMED SPIN DENSITY           1.00000000
 TOTAL ATOMIC SPINS  :
  -0.0006831  -0.0006849  -0.0006848  -0.0006831  -0.4518582   0.4346643
   0.4131989   0.2742285  -0.0137283   0.0988500  -0.0137282   0.0988500
  -0.0169950  -0.0169944   0.0981236   0.0981247
 TTTTTTTTTTTTTTTTTTTTTTTTTTTTTT MOQGAD      TELAPSE     7659.14 TCPU     7605.52
 TTTTTTTTTTTTTTTTTTTTTTTTTTTTTT SHELLXN     TELAPSE     8736.52 TCPU     8676.31
 TTTTTTTTTTTTTTTTTTTTTTTTTTTTTT MONMO3      TELAPSE     8744.03 TCPU     8683.83
 NUMERICALLY INTEGRATED DENSITY     66.9997870316     65.9997751703
 TTTTTTTTTTTTTTTTTTTTTTTTTTTTTT NUMDFT      TELAPSE     8749.75 TCPU     8689.54
 CYC   7 ETOT(AU) -9.209171417555E+02 DETOT -2.48E-03 tst  5.15E-04 PX  9.21E-02
 CYCLE  7 WAVE FUNCTION SAVED IN FORTRAN UNIT 79
 TTTTTTTTTTTTTTTTTTTTTTTTTTTTTT DIIS        TELAPSE     8751.02 TCPU     8690.51
 DIIS TEST: 0.36171E-01 AT SCF   CYCLE   7 - DIIS ACTIVE - HISTORY:     7 CYCLES
 TTTTTTTTTTTTTTTTTTTTTTTTTTTTTT FDIK        TELAPSE     8752.97 TCPU     8692.33
 SPIN LOCKING: NO ENERGY GAP COMPUTED
 TTTTTTTTTTTTTTTTTTTTTTTTTTTTTT PDIG        TELAPSE     8753.22 TCPU     8692.57
 CHARGE NORMALIZATION FACTOR   1.00000000
 TOTAL ATOMIC CHARGES:
   0.1846842   0.1846849   0.1846849   0.1846843  18.1027621  18.1192370
  18.1066839  18.2038499   7.4587441   7.4738584   7.4587442   7.4738583
   7.4579085   7.4579077   7.4738539   7.4738536
 SUMMED SPIN DENSITY           1.00000000
 TOTAL ATOMIC SPINS  :
  -0.0007190  -0.0007182  -0.0007183  -0.0007188  -0.4495499   0.4215544
   0.4536471   0.2635388  -0.0161460   0.0960937  -0.0161459   0.0960937
  -0.0221366  -0.0221367   0.0990307   0.0990313
 TTTTTTTTTTTTTTTTTTTTTTTTTTTTTT MOQGAD      TELAPSE     8753.24 TCPU     8692.59
 TTTTTTTTTTTTTTTTTTTTTTTTTTTTTT SHELLXN     TELAPSE     9830.30 TCPU     9764.26
 TTTTTTTTTTTTTTTTTTTTTTTTTTTTTT MONMO3      TELAPSE     9842.79 TCPU     9776.75
 NUMERICALLY INTEGRATED DENSITY     66.9997886435     65.9997775259
 TTTTTTTTTTTTTTTTTTTTTTTTTTTTTT NUMDFT      TELAPSE     9848.38 TCPU     9782.34
 CYC   8 ETOT(AU) -9.209199467890E+02 DETOT -2.81E-03 tst  1.27E-04 PX  4.71E-02
 CYCLE  8 WAVE FUNCTION SAVED IN FORTRAN UNIT 79
 TTTTTTTTTTTTTTTTTTTTTTTTTTTTTT DIIS        TELAPSE     9849.24 TCPU     9783.00
 DIIS TEST: 0.91194E-02 AT SCF   CYCLE   8 - DIIS ACTIVE - HISTORY:     8 CYCLES
 TTTTTTTTTTTTTTTTTTTTTTTTTTTTTT FDIK        TELAPSE     9851.21 TCPU     9784.91
 SPIN LOCKING: NO ENERGY GAP COMPUTED
 TTTTTTTTTTTTTTTTTTTTTTTTTTTTTT PDIG        TELAPSE     9851.69 TCPU     9785.39
 CHARGE NORMALIZATION FACTOR   1.00000000
 TOTAL ATOMIC CHARGES:
   0.1859700   0.1859697   0.1859698   0.1859699  18.1031179  18.1217222
  18.1113693  18.2017346   7.4559011   7.4739516   7.4559012   7.4739517
   7.4585259   7.4585246   7.4707103   7.4707102
 SUMMED SPIN DENSITY           1.00000000
 TOTAL ATOMIC SPINS  :
  -0.0007398  -0.0007399  -0.0007400  -0.0007397  -0.4588178   0.4284209
   0.4565298   0.2580450  -0.0167842   0.0974123  -0.0167841   0.0974123
  -0.0217680  -0.0217677   0.1005299   0.1005309
 TTTTTTTTTTTTTTTTTTTTTTTTTTTTTT MOQGAD      TELAPSE     9851.71 TCPU     9785.41
 TTTTTTTTTTTTTTTTTTTTTTTTTTTTTT SHELLXN     TELAPSE    10929.61 TCPU    10856.51
 TTTTTTTTTTTTTTTTTTTTTTTTTTTTTT MONMO3      TELAPSE    10937.61 TCPU    10864.51
 NUMERICALLY INTEGRATED DENSITY     66.9997873065     65.9997768845
 TTTTTTTTTTTTTTTTTTTTTTTTTTTTTT NUMDFT      TELAPSE    10943.39 TCPU    10869.86
 CYC   9 ETOT(AU) -9.209204907298E+02 DETOT -5.44E-04 tst  2.38E-05 PX  1.54E-02
 CYCLE  9 WAVE FUNCTION SAVED IN FORTRAN UNIT 79
 TTTTTTTTTTTTTTTTTTTTTTTTTTTTTT DIIS        TELAPSE    10944.28 TCPU    10870.68
 DIIS TEST: 0.46685E-02 AT SCF   CYCLE   9 - DIIS ACTIVE - HISTORY:     9 CYCLES
 TTTTTTTTTTTTTTTTTTTTTTTTTTTTTT FDIK        TELAPSE    10946.13 TCPU    10872.47
 SPIN LOCKING: NO ENERGY GAP COMPUTED
 TTTTTTTTTTTTTTTTTTTTTTTTTTTTTT PDIG        TELAPSE    10946.38 TCPU    10872.70
 CHARGE NORMALIZATION FACTOR   1.00000000
 TOTAL ATOMIC CHARGES:
   0.1858950   0.1858937   0.1858938   0.1858949  18.1099630  18.1206198
  18.1152218  18.1941941   7.4575677   7.4721994   7.4575678   7.4721995
   7.4564882   7.4564869   7.4719571   7.4719573
 SUMMED SPIN DENSITY           1.00000000
 TOTAL ATOMIC SPINS  :
  -0.0007662  -0.0007661  -0.0007662  -0.0007661  -0.4638678   0.4377122
   0.4579536   0.2532586  -0.0175989   0.0978498  -0.0175988   0.0978498
  -0.0218359  -0.0218355   0.1005882   0.1005890
 TTTTTTTTTTTTTTTTTTTTTTTTTTTTTT MOQGAD      TELAPSE    10946.40 TCPU    10872.72
 TTTTTTTTTTTTTTTTTTTTTTTTTTTTTT SHELLXN     TELAPSE    12023.02 TCPU    11943.61
 TTTTTTTTTTTTTTTTTTTTTTTTTTTTTT MONMO3      TELAPSE    12030.16 TCPU    11950.75
 NUMERICALLY INTEGRATED DENSITY     66.9997873425     65.9997775354
 TTTTTTTTTTTTTTTTTTTTTTTTTTTTTT NUMDFT      TELAPSE    12035.77 TCPU    11956.36
 CYC  10 ETOT(AU) -9.209208739255E+02 DETOT -3.83E-04 tst  2.06E-05 PX  1.28E-02
 CYCLE 10 WAVE FUNCTION SAVED IN FORTRAN UNIT 79
 TTTTTTTTTTTTTTTTTTTTTTTTTTTTTT DIIS        TELAPSE    12036.65 TCPU    11957.03
 DIIS TEST: 0.11587E-02 AT SCF   CYCLE  10 - DIIS ACTIVE - HISTORY:    10 CYCLES
 TTTTTTTTTTTTTTTTTTTTTTTTTTTTTT FDIK        TELAPSE    12038.74 TCPU    11959.00
 SPIN LOCKING: NO ENERGY GAP COMPUTED
 TTTTTTTTTTTTTTTTTTTTTTTTTTTTTT PDIG        TELAPSE    12038.99 TCPU    11959.24
 CHARGE NORMALIZATION FACTOR   1.00000000
 TOTAL ATOMIC CHARGES:
   0.1857452   0.1857446   0.1857449   0.1857449  18.1105028  18.1210246
  18.1155027  18.1921719   7.4565864   7.4735057   7.4565864   7.4735057
   7.4583591   7.4583590   7.4704583   7.4704579
 SUMMED SPIN DENSITY           1.00000000
 TOTAL ATOMIC SPINS  :
  -0.0007667  -0.0007668  -0.0007669  -0.0007667  -0.4648204   0.4388746
   0.4593301   0.2515784  -0.0176073   0.0975544  -0.0176073   0.0975544
  -0.0216991  -0.0216992   0.1008040   0.1008045
 TTTTTTTTTTTTTTTTTTTTTTTTTTTTTT MOQGAD      TELAPSE    12039.01 TCPU    11959.26
 TTTTTTTTTTTTTTTTTTTTTTTTTTTTTT SHELLXN     TELAPSE    13112.45 TCPU    13030.06
 TTTTTTTTTTTTTTTTTTTTTTTTTTTTTT MONMO3      TELAPSE    13123.95 TCPU    13041.56
 NUMERICALLY INTEGRATED DENSITY     66.9997874235     65.9997777652
 TTTTTTTTTTTTTTTTTTTTTTTTTTTTTT NUMDFT      TELAPSE    13129.61 TCPU    13047.22
 CYC  11 ETOT(AU) -9.209209406137E+02 DETOT -6.67E-05 tst  1.38E-06 PX  2.59E-03
 CYCLE 11 WAVE FUNCTION SAVED IN FORTRAN UNIT 79
 TTTTTTTTTTTTTTTTTTTTTTTTTTTTTT DIIS        TELAPSE    13130.89 TCPU    13048.28
 DIIS TEST: 0.52528E-03 AT SCF   CYCLE  11 - DIIS ACTIVE - HISTORY:    11 CYCLES
 TTTTTTTTTTTTTTTTTTTTTTTTTTTTTT FDIK        TELAPSE    13132.86 TCPU    13049.94
 SPIN LOCKING: NO ENERGY GAP COMPUTED
 TTTTTTTTTTTTTTTTTTTTTTTTTTTTTT PDIG        TELAPSE    13133.10 TCPU    13050.18
 CHARGE NORMALIZATION FACTOR   1.00000000
 TOTAL ATOMIC CHARGES:
   0.1858028   0.1858021   0.1858024   0.1858025  18.1119378  18.1207002
  18.1168765  18.1908958   7.4568267   7.4728416   7.4568267   7.4728416
   7.4576961   7.4576960   7.4708258   7.4708255
 SUMMED SPIN DENSITY           1.00000000
 TOTAL ATOMIC SPINS  :
  -0.0007673  -0.0007673  -0.0007675  -0.0007672  -0.4649541   0.4418375
   0.4604981   0.2476118  -0.0174273   0.0973749  -0.0174272   0.0973749
  -0.0213525  -0.0213525   0.1004426   0.1004431
 TTTTTTTTTTTTTTTTTTTTTTTTTTTTTT MOQGAD      TELAPSE    13133.12 TCPU    13050.21
 TTTTTTTTTTTTTTTTTTTTTTTTTTTTTT SHELLXN     TELAPSE    14208.76 TCPU    14120.92
 TTTTTTTTTTTTTTTTTTTTTTTTTTTTTT MONMO3      TELAPSE    14219.56 TCPU    14131.57
 NUMERICALLY INTEGRATED DENSITY     66.9997872225     65.9997777371
 TTTTTTTTTTTTTTTTTTTTTTTTTTTTTT NUMDFT      TELAPSE    14225.21 TCPU    14137.22
 CYC  12 ETOT(AU) -9.209209816062E+02 DETOT -4.10E-05 tst  4.64E-06 PX  5.94E-03
 CYCLE 12 WAVE FUNCTION SAVED IN FORTRAN UNIT 79
 TTTTTTTTTTTTTTTTTTTTTTTTTTTTTT DIIS        TELAPSE    14226.13 TCPU    14137.91
 DIIS TEST: 0.17158E-03 AT SCF   CYCLE  12 - DIIS ACTIVE - HISTORY:    12 CYCLES
 TTTTTTTTTTTTTTTTTTTTTTTTTTTTTT FDIK        TELAPSE    14228.28 TCPU    14139.98
 SPIN LOCKING: NO ENERGY GAP COMPUTED
 TTTTTTTTTTTTTTTTTTTTTTTTTTTTTT PDIG        TELAPSE    14228.54 TCPU    14140.23
 CHARGE NORMALIZATION FACTOR   1.00000000
 TOTAL ATOMIC CHARGES:
   0.1857988   0.1857986   0.1857989   0.1857985  18.1119918  18.1173191
  18.1165087  18.1944806   7.4568225   7.4729333   7.4568225   7.4729333
   7.4572933   7.4572926   7.4712042   7.4712034
 SUMMED SPIN DENSITY           1.00000000
 TOTAL ATOMIC SPINS  :
  -0.0007656  -0.0007655  -0.0007655  -0.0007656  -0.4646882   0.4468262
   0.4611730   0.2417760  -0.0173229   0.0972189  -0.0173228   0.0972188
  -0.0207146  -0.0207144   0.0998061   0.0998061
 TTTTTTTTTTTTTTTTTTTTTTTTTTTTTT MOQGAD      TELAPSE    14228.56 TCPU    14140.25
mpiexec: killing job...

--------------------------------------------------------------------------
mpiexec noticed that process rank 0 with PID 50284 on node golub044 exited on signal 0 (Unknown signal 0).
--------------------------------------------------------------------------
mpiexec: clean termination accomplished

32 total processes killed (some possibly by mpiexec during cleanup)
