--------------------------------------------------------------------------
WARNING: No preset parameters were found for the device that Open MPI
detected:

  Local host:            golub180
  Device name:           mlx4_0
  Device vendor ID:      0x02c9
  Device vendor part ID: 4099

Default device parameters will be used, which may result in lower
performance.  You can edit any of the files specified by the
btl_openib_device_param_files MCA parameter to set values for your
device.

NOTE: You can turn off this warning by setting the MCA parameter
      btl_openib_warn_no_device_params_found to 0.
--------------------------------------------------------------------------
 PROCESS            5  OF           20  WORKING
 PROCESS           16  OF           20  WORKING
 PROCESS            4  OF           20  WORKING
 PROCESS           11  OF           20  WORKING
 PROCESS           19  OF           20  WORKING
 PROCESS            6  OF           20  WORKING
 PROCESS            8  OF           20  WORKING
 PROCESS           12  OF           20  WORKING
 PROCESS           10  OF           20  WORKING
 PROCESS            9  OF           20  WORKING
 PROCESS            1  OF           20  WORKING
 PROCESS            2  OF           20  WORKING
 PROCESS           14  OF           20  WORKING
 PROCESS            0  OF           20  WORKING
 PROCESS           15  OF           20  WORKING
 PROCESS           13  OF           20  WORKING
 PROCESS           18  OF           20  WORKING
 PROCESS            3  OF           20  WORKING
 PROCESS           17  OF           20  WORKING

         
 *******************************************************************************
 *                                                                             *
 *                               CRYSTAL17                                     *
 *                      public : 1.0.1 - Jun 21st, 2017                        *
 *                       HTTP://WWW.CRYSTAL.UNITO.IT                           *
 *                                                                             *
 *                              MAIN AUTHORS                                   *
 *                                                                             *
 *  R. DOVESI(1,11), V.R. SAUNDERS(2), C. ROETTI(1,11), R. ORLANDO(1,11),      *
 *  C.M. ZICOVICH-WILSON(1,3), F. PASCALE(4), B. CIVALLERI(1,11),              *
 *  K. DOLL(5), N.M. HARRISON(2,6), I.J. BUSH(7), Ph. D'ARCO(8),               *
 *  M. LLUNELL(9), M. CAUSA'(10), Y. NOEL(8), L. MASCHIO(1,11), A. ERBA(1,11)  *
 *  M. RE'RAT(14), S. CASASSA(1,11)                                            *
 *                                                                             *
 *        CONTRIBUTIONS TO THE CODE HAVE ALSO BEEN GIVEN BY                    *
 *                                                                             *
 *  M. FERRABONE(1,11), M. DE LA PIERRE(1,11), M. FERRERO(1,11),               *
 *  J. BAIMA(1,11), E. ALBANESE(1,11), M.F. PEINTINGER(12), R. BAST(13),       *
 *  B. KIRTMAN(15), V. LACIVITA(1,11), R. DEMICHELIS(1,16)                     *
 *  G. BRANDEBURG(17), S. SALUSTRO(1,11), G. SANSONE(1,11)                     *
 *  M.T. RUGGIERO(18)                                                          *
 *                                                                             *
 * (1) THEORETICAL CHEMISTRY GROUP - UNIVERSITA' DI TORINO - TORINO (ITALY)    *

 * (2) COMPUTATIONAL SCIENCE & ENGINEERING DEPARTMENT - STFC DARESBURY (UK)    *
 * (3) UNIVERSIDAD AUTONOMA DEL ESTADO DE MORELOS - CUERNAVACA (MEXICO)        *
 * (4) UNIVERSITE' DE LORRAINE - NANCY (FRANCE)                                *
 * (5) UNIVERSITAET STUTTGART- STUTTGART (GERMANY)                             *
 * (6) IMPERIAL COLLEGE - LONDON (UK)                                          *
 * (7) OXFORD E-RESEARCH CENTRE - OXFORD (UK)                                  *
 * (8) UPMC - SORBONNE UNIVERSITES - PARIS (FRANCE)                            *
 * (9) UNIVERSIDAD DE BARCELONA - BARCELONA (SPAIN)                            *
 *(10) UNIVERSITA' DI NAPOLI "FEDERICO II" - NAPOLI (ITALY)                    *
 *(11) NIS - NANOSTRUCTURED INTERFACES AND SURFACES - TORINO (ITALY)           *
 *(12) MPI FUER CHEMISCHE ENERGIEKONVERSION - MUELHEIM AN DER RUHR (GERMANY)   *
 *(13) UNIVERSITY OF TROMSO - TROMSO (NORWAY)                                  *
 *(14) UNIVERSITE' DE PAU ET DES PAYS DE L'ADOUR - PAU (FRANCE)                *
 *(15) UNIVERSITY OF CALIFORNIA SANTA BARBARA - SANTA BARBARA (USA)            *
 *(16) CURTIN UNIVERSITY - PERTH (AUSTRALIA)                                   *
 *(17) UNIVERSITY COLLEGE LONDON - LONDON (UK)                                 *
 *(18) CAMBRIDGE UNIVERSITY - CAMBRIDGE (UK)                                   *
 *                                                                             *
 *******************************************************************************
 EEEEEEEEEE STARTING  DATE 24 03 2018 TIME 20:51:43.6
 Generated by CrystalWriter                                                      
 PROCESS            7  OF           20  WORKING

 CRYSTAL CALCULATION
 (INPUT ACCORDING TO THE INTERNATIONAL TABLES FOR X-RAY CRYSTALLOGRAPHY)
 CRYSTAL FAMILY                       :  TETRAGONAL  
 CRYSTAL CLASS  (GROTH - 1921)        :  DITETRAGONAL DIPYRAMIDAL             

 SPACE GROUP (CENTROSYMMETRIC)        :  P 4/M M M       

 LATTICE PARAMETERS  (ANGSTROMS AND DEGREES) - CONVENTIONAL CELL
        A           B           C        ALPHA        BETA       GAMMA
     3.92785     3.92785     3.43380    90.00000    90.00000    90.00000


 NUMBER OF IRREDUCIBLE ATOMS IN THE CONVENTIONAL CELL:    4

 INPUT COORDINATES

 ATOM AT. N.              COORDINATES
   1 229     0.000000000000E+00  0.000000000000E+00  0.000000000000E+00
   2 208     0.000000000000E+00  5.000000000000E-01  0.000000000000E+00
   3 208     5.000000000000E-01  0.000000000000E+00  0.000000000000E+00
   4 238     5.000000000000E-01  5.000000000000E-01  5.000000000000E-01

 *******************************************************************************

 << INFORMATION >>: FROM NOW ON, ALL COORDINATES REFER TO THE PRIMITIVE CELL

 *******************************************************************************

 LATTICE PARAMETERS  (ANGSTROMS AND DEGREES) - PRIMITIVE CELL
       A          B          C        ALPHA      BETA     GAMMA        VOLUME
    3.92785    3.92785    3.43380    90.00000  90.00000  90.00000     52.976686

 INPUT LIST - ATOM N.   3 NOT IRREDUCIBLE

 COORDINATES OF THE EQUIVALENT ATOMS (FRACTIONAL UNITS)

 N. ATOM EQUIV AT. N.          X                  Y                  Z

   1   1   1  229 CU    0.00000000000E+00  0.00000000000E+00  0.00000000000E+00

   2   2   1  208 O     0.00000000000E+00 -5.00000000000E-01  0.00000000000E+00
   3   2   2  208 O     5.00000000000E-01  0.00000000000E+00  0.00000000000E+00


 NUMBER OF SYMMETRY OPERATORS         :   16
 *******************************************************************************
 * GEOMETRY EDITING - INPUT COORDINATES ARE GIVEN IN ANGSTROM         
 *******************************************************************************

 GEOMETRY NOW FULLY CONSISTENT WITH THE GROUP

 NO SYMMOPS WITH FINITE TRANSLATIONAL COMPONENT

 *******************************************************************************
 * SUPERCELL OPTION
 *******************************************************************************

 INFORMATION **** GEXPAD **** SUPERCELL VOLUME NEGATIVE ? - SIGN OF EXPANSION MATRIX REVERSED

        EXPANSION MATRIX OF PRIMITIVE CELL
 E1    -2.000    -2.000     0.000
 E2     2.000    -2.000     0.000
 E3     0.000     0.000     1.000

 NUMBER OF ATOMS PER SUPERCELL    32

        DIRECT LATTICE VECTORS COMPONENTS (ANGSTROM)
 B1    -7.856    -7.856     0.000
 B2     7.856    -7.856     0.000
 B3     0.000     0.000     3.434

 LATTICE PARAMETERS  (ANGSTROM AND DEGREES)
       A          B          C         ALPHA     BETA     GAMMA        VOLUME
   11.10964   11.10964    3.43380    90.00000  90.00000  90.00000    423.813486


 **** ATOMS BELONGING TO THE SUPERCELL
 LABEL AT.NO.      COORDINATES (ANGSTROM AND FRACTIONAL)
     1   229     7.8557     0.0000     0.0000    -0.5000     0.5000     0.0000
     2   229     0.0000    -3.9278     0.0000     0.2500     0.2500     0.0000
     3   229     0.0000     0.0000     0.0000     0.0000     0.0000     0.0000
     4   229     0.0000     3.9278     0.0000    -0.2500    -0.2500     0.0000
     5   229    -3.9279     0.0000     0.0000     0.2500    -0.2500     0.0000
     6   229     3.9278    -3.9278     0.0000     0.0000     0.5000     0.0000
     7   229     3.9278     0.0000     0.0000    -0.2500     0.2500     0.0000
     8   229     3.9278     3.9278     0.0000    -0.5000     0.0000     0.0000
     9   208    -0.0000     5.8918     0.0000    -0.3750    -0.3750     0.0000
    10   208    -0.0000    -5.8918     0.0000     0.3750     0.3750     0.0000
    11   208     0.0000    -1.9639     0.0000     0.1250     0.1250     0.0000
    12   208     0.0000     1.9639     0.0000    -0.1250    -0.1250     0.0000
    13   208    -3.9279    -1.9639     0.0000     0.3750    -0.1250     0.0000
    14   208    -3.9279     1.9639     0.0000     0.1250    -0.3750     0.0000
    15   208     3.9278    -1.9639     0.0000    -0.1250     0.3750     0.0000
    16   208     3.9278     1.9639     0.0000    -0.3750     0.1250     0.0000
    17   208     5.8918     0.0000     0.0000    -0.3750     0.3750     0.0000
    18   208    -1.9639    -3.9278     0.0000     0.3750     0.1250     0.0000
    19   208    -1.9639     0.0000     0.0000     0.1250    -0.1250     0.0000
    20   208    -1.9639     3.9278     0.0000    -0.1250    -0.3750     0.0000
    21   208    -5.8918     0.0000     0.0000     0.3750    -0.3750     0.0000
    22   208     1.9639    -3.9278     0.0000     0.1250     0.3750     0.0000
    23   208     1.9639     0.0000     0.0000    -0.1250     0.1250     0.0000
    24   208     1.9639     3.9278     0.0000    -0.3750    -0.1250     0.0000
    25   238     5.8918    -1.9639     1.7169    -0.2500     0.5000     0.5000
    26   238     5.8918     1.9639     1.7169    -0.5000     0.2500     0.5000
    27   238    -1.9639    -1.9639     1.7169     0.2500     0.0000     0.5000
    28   238    -1.9639     1.9639     1.7169     0.0000    -0.2500     0.5000
    29   238     1.9639     5.8918     1.7169    -0.5000    -0.2500     0.5000
    30   238     1.9639    -5.8918     1.7169     0.2500     0.5000     0.5000
    31   238     1.9639    -1.9639     1.7169     0.0000     0.2500     0.5000
    32   238     1.9639     1.9639     1.7169    -0.2500     0.0000     0.5000

 **************************** SUPERCELL GENERATED ****************************
 *********************************************************************
                        ATOMIC SITE SYMMETRIES
 *********************************************************************


 ATOM   1 ATOMIC NUMBER 229 - NUMBER OF SYMMOPS WHICH DO NOT MOVE THE ATOM  16
 SEQUENCE NUMBERS OF THE SYMMOPS
    1    2    3    4    5    6    7    8    9   10   11   12   13   14   15
   16
 NO EQUIVALENT ATOMS


 ATOM   2 ATOMIC NUMBER 229 - NUMBER OF SYMMOPS WHICH DO NOT MOVE THE ATOM   4
 SEQUENCE NUMBERS OF THE SYMMOPS
    1    4   10   11
 NUMBER OF ATOMS EQUIVALENT BY SYMMETRY    3
 SEQUENCE NUMBERS OF THESE ATOMS
    4    7    5
 SEQUENCE NUMBERS OF THE CORRESPONDING SYMMOPS
    2    5    6


 ATOM   3 ATOMIC NUMBER 229 - NUMBER OF SYMMOPS WHICH DO NOT MOVE THE ATOM  16
 SEQUENCE NUMBERS OF THE SYMMOPS
    1    2    3    4    5    6    7    8    9   10   11   12   13   14   15
   16
 NO EQUIVALENT ATOMS


 ATOM   4 ATOMIC NUMBER 229 - NUMBER OF SYMMOPS WHICH DO NOT MOVE THE ATOM   4
 SEQUENCE NUMBERS OF THE SYMMOPS
    1    4   10   11
 NUMBER OF ATOMS EQUIVALENT BY SYMMETRY    3
 SEQUENCE NUMBERS OF THESE ATOMS
    2    5    7
 SEQUENCE NUMBERS OF THE CORRESPONDING SYMMOPS
    2    5    6


 ATOM   5 ATOMIC NUMBER 229 - NUMBER OF SYMMOPS WHICH DO NOT MOVE THE ATOM   4
 SEQUENCE NUMBERS OF THE SYMMOPS
    1    3   10   12
 NUMBER OF ATOMS EQUIVALENT BY SYMMETRY    3
 SEQUENCE NUMBERS OF THESE ATOMS
    7    4    2
 SEQUENCE NUMBERS OF THE CORRESPONDING SYMMOPS
    2    5    6


 ATOM   6 ATOMIC NUMBER 229 - NUMBER OF SYMMOPS WHICH DO NOT MOVE THE ATOM   8
 SEQUENCE NUMBERS OF THE SYMMOPS
    1    2    5    6    9   10   13   14
 NUMBER OF ATOMS EQUIVALENT BY SYMMETRY    1
 SEQUENCE NUMBERS OF THESE ATOMS
    8
 SEQUENCE NUMBERS OF THE CORRESPONDING SYMMOPS
    3


 ATOM   7 ATOMIC NUMBER 229 - NUMBER OF SYMMOPS WHICH DO NOT MOVE THE ATOM   4
 SEQUENCE NUMBERS OF THE SYMMOPS
    1    3   10   12
 NUMBER OF ATOMS EQUIVALENT BY SYMMETRY    3
 SEQUENCE NUMBERS OF THESE ATOMS
    5    2    4
 SEQUENCE NUMBERS OF THE CORRESPONDING SYMMOPS
    2    5    6


 ATOM   8 ATOMIC NUMBER 229 - NUMBER OF SYMMOPS WHICH DO NOT MOVE THE ATOM   8
 SEQUENCE NUMBERS OF THE SYMMOPS
    1    2    5    6    9   10   13   14
 NUMBER OF ATOMS EQUIVALENT BY SYMMETRY    1
 SEQUENCE NUMBERS OF THESE ATOMS
    6
 SEQUENCE NUMBERS OF THE CORRESPONDING SYMMOPS
    3


 ATOM   9 ATOMIC NUMBER 208 - NUMBER OF SYMMOPS WHICH DO NOT MOVE THE ATOM   4
 SEQUENCE NUMBERS OF THE SYMMOPS
    1    4   10   11
 NUMBER OF ATOMS EQUIVALENT BY SYMMETRY    3
 SEQUENCE NUMBERS OF THESE ATOMS
   10   21   17
 SEQUENCE NUMBERS OF THE CORRESPONDING SYMMOPS
    2    5    6


 ATOM  10 ATOMIC NUMBER 208 - NUMBER OF SYMMOPS WHICH DO NOT MOVE THE ATOM   4
 SEQUENCE NUMBERS OF THE SYMMOPS
    1    4   10   11
 NUMBER OF ATOMS EQUIVALENT BY SYMMETRY    3
 SEQUENCE NUMBERS OF THESE ATOMS
    9   17   21
 SEQUENCE NUMBERS OF THE CORRESPONDING SYMMOPS
    2    5    6


 ATOM  11 ATOMIC NUMBER 208 - NUMBER OF SYMMOPS WHICH DO NOT MOVE THE ATOM   4
 SEQUENCE NUMBERS OF THE SYMMOPS
    1    4   10   11
 NUMBER OF ATOMS EQUIVALENT BY SYMMETRY    3
 SEQUENCE NUMBERS OF THESE ATOMS
   12   23   19
 SEQUENCE NUMBERS OF THE CORRESPONDING SYMMOPS
    2    5    6


 ATOM  12 ATOMIC NUMBER 208 - NUMBER OF SYMMOPS WHICH DO NOT MOVE THE ATOM   4
 SEQUENCE NUMBERS OF THE SYMMOPS
    1    4   10   11
 NUMBER OF ATOMS EQUIVALENT BY SYMMETRY    3
 SEQUENCE NUMBERS OF THESE ATOMS
   11   19   23
 SEQUENCE NUMBERS OF THE CORRESPONDING SYMMOPS
    2    5    6


 ATOM  13 ATOMIC NUMBER 208 - NUMBER OF SYMMOPS WHICH DO NOT MOVE THE ATOM   2
 SEQUENCE NUMBERS OF THE SYMMOPS
    1   10
 NUMBER OF ATOMS EQUIVALENT BY SYMMETRY    7
 SEQUENCE NUMBERS OF THESE ATOMS
   16   14   15   24   18   20   22
 SEQUENCE NUMBERS OF THE CORRESPONDING SYMMOPS
    2    3    4    5    6    7    8


 ATOM  14 ATOMIC NUMBER 208 - NUMBER OF SYMMOPS WHICH DO NOT MOVE THE ATOM   2
 SEQUENCE NUMBERS OF THE SYMMOPS
    1   10
 NUMBER OF ATOMS EQUIVALENT BY SYMMETRY    7
 SEQUENCE NUMBERS OF THESE ATOMS
   15   13   16   20   22   24   18
 SEQUENCE NUMBERS OF THE CORRESPONDING SYMMOPS
    2    3    4    5    6    7    8


 ATOM  15 ATOMIC NUMBER 208 - NUMBER OF SYMMOPS WHICH DO NOT MOVE THE ATOM   2
 SEQUENCE NUMBERS OF THE SYMMOPS
    1   10
 NUMBER OF ATOMS EQUIVALENT BY SYMMETRY    7
 SEQUENCE NUMBERS OF THESE ATOMS
   14   16   13   22   20   18   24
 SEQUENCE NUMBERS OF THE CORRESPONDING SYMMOPS
    2    3    4    5    6    7    8


 ATOM  16 ATOMIC NUMBER 208 - NUMBER OF SYMMOPS WHICH DO NOT MOVE THE ATOM   2
 SEQUENCE NUMBERS OF THE SYMMOPS
    1   10
 NUMBER OF ATOMS EQUIVALENT BY SYMMETRY    7
 SEQUENCE NUMBERS OF THESE ATOMS
   13   15   14   18   24   22   20
 SEQUENCE NUMBERS OF THE CORRESPONDING SYMMOPS
    2    3    4    5    6    7    8


 ATOM  17 ATOMIC NUMBER 208 - NUMBER OF SYMMOPS WHICH DO NOT MOVE THE ATOM   4
 SEQUENCE NUMBERS OF THE SYMMOPS
    1    3   10   12
 NUMBER OF ATOMS EQUIVALENT BY SYMMETRY    3
 SEQUENCE NUMBERS OF THESE ATOMS
   21   10    9
 SEQUENCE NUMBERS OF THE CORRESPONDING SYMMOPS
    2    5    6


 ATOM  18 ATOMIC NUMBER 208 - NUMBER OF SYMMOPS WHICH DO NOT MOVE THE ATOM   2
 SEQUENCE NUMBERS OF THE SYMMOPS
    1   10
 NUMBER OF ATOMS EQUIVALENT BY SYMMETRY    7
 SEQUENCE NUMBERS OF THESE ATOMS
   24   20   22   16   13   14   15
 SEQUENCE NUMBERS OF THE CORRESPONDING SYMMOPS
    2    3    4    5    6    7    8


 ATOM  19 ATOMIC NUMBER 208 - NUMBER OF SYMMOPS WHICH DO NOT MOVE THE ATOM   4
 SEQUENCE NUMBERS OF THE SYMMOPS
    1    3   10   12
 NUMBER OF ATOMS EQUIVALENT BY SYMMETRY    3
 SEQUENCE NUMBERS OF THESE ATOMS
   23   12   11
 SEQUENCE NUMBERS OF THE CORRESPONDING SYMMOPS
    2    5    6


 ATOM  20 ATOMIC NUMBER 208 - NUMBER OF SYMMOPS WHICH DO NOT MOVE THE ATOM   2
 SEQUENCE NUMBERS OF THE SYMMOPS
    1   10
 NUMBER OF ATOMS EQUIVALENT BY SYMMETRY    7
 SEQUENCE NUMBERS OF THESE ATOMS
   22   18   24   14   15   16   13
 SEQUENCE NUMBERS OF THE CORRESPONDING SYMMOPS
    2    3    4    5    6    7    8


 ATOM  21 ATOMIC NUMBER 208 - NUMBER OF SYMMOPS WHICH DO NOT MOVE THE ATOM   4
 SEQUENCE NUMBERS OF THE SYMMOPS
    1    3   10   12
 NUMBER OF ATOMS EQUIVALENT BY SYMMETRY    3
 SEQUENCE NUMBERS OF THESE ATOMS
   17    9   10
 SEQUENCE NUMBERS OF THE CORRESPONDING SYMMOPS
    2    5    6


 ATOM  22 ATOMIC NUMBER 208 - NUMBER OF SYMMOPS WHICH DO NOT MOVE THE ATOM   2
 SEQUENCE NUMBERS OF THE SYMMOPS
    1   10
 NUMBER OF ATOMS EQUIVALENT BY SYMMETRY    7
 SEQUENCE NUMBERS OF THESE ATOMS
   20   24   18   15   14   13   16
 SEQUENCE NUMBERS OF THE CORRESPONDING SYMMOPS
    2    3    4    5    6    7    8


 ATOM  23 ATOMIC NUMBER 208 - NUMBER OF SYMMOPS WHICH DO NOT MOVE THE ATOM   4
 SEQUENCE NUMBERS OF THE SYMMOPS
    1    3   10   12
 NUMBER OF ATOMS EQUIVALENT BY SYMMETRY    3
 SEQUENCE NUMBERS OF THESE ATOMS
   19   11   12
 SEQUENCE NUMBERS OF THE CORRESPONDING SYMMOPS
    2    5    6


 ATOM  24 ATOMIC NUMBER 208 - NUMBER OF SYMMOPS WHICH DO NOT MOVE THE ATOM   2
 SEQUENCE NUMBERS OF THE SYMMOPS
    1   10
 NUMBER OF ATOMS EQUIVALENT BY SYMMETRY    7
 SEQUENCE NUMBERS OF THESE ATOMS
   18   22   20   13   16   15   14
 SEQUENCE NUMBERS OF THE CORRESPONDING SYMMOPS
    2    3    4    5    6    7    8


 ATOM  25 ATOMIC NUMBER 238 - NUMBER OF SYMMOPS WHICH DO NOT MOVE THE ATOM   4
 SEQUENCE NUMBERS OF THE SYMMOPS
    1    6   10   13
 NUMBER OF ATOMS EQUIVALENT BY SYMMETRY    3
 SEQUENCE NUMBERS OF THESE ATOMS
   30   26   29
 SEQUENCE NUMBERS OF THE CORRESPONDING SYMMOPS
    2    3    4


 ATOM  26 ATOMIC NUMBER 238 - NUMBER OF SYMMOPS WHICH DO NOT MOVE THE ATOM   4
 SEQUENCE NUMBERS OF THE SYMMOPS
    1    5   10   14
 NUMBER OF ATOMS EQUIVALENT BY SYMMETRY    3
 SEQUENCE NUMBERS OF THESE ATOMS
   29   25   30
 SEQUENCE NUMBERS OF THE CORRESPONDING SYMMOPS
    2    3    4


 ATOM  27 ATOMIC NUMBER 238 - NUMBER OF SYMMOPS WHICH DO NOT MOVE THE ATOM   4
 SEQUENCE NUMBERS OF THE SYMMOPS
    1    6   10   13
 NUMBER OF ATOMS EQUIVALENT BY SYMMETRY    3
 SEQUENCE NUMBERS OF THESE ATOMS
   32   28   31
 SEQUENCE NUMBERS OF THE CORRESPONDING SYMMOPS
    2    3    4


 ATOM  28 ATOMIC NUMBER 238 - NUMBER OF SYMMOPS WHICH DO NOT MOVE THE ATOM   4
 SEQUENCE NUMBERS OF THE SYMMOPS
    1    5   10   14
 NUMBER OF ATOMS EQUIVALENT BY SYMMETRY    3
 SEQUENCE NUMBERS OF THESE ATOMS
   31   27   32
 SEQUENCE NUMBERS OF THE CORRESPONDING SYMMOPS
    2    3    4


 ATOM  29 ATOMIC NUMBER 238 - NUMBER OF SYMMOPS WHICH DO NOT MOVE THE ATOM   4
 SEQUENCE NUMBERS OF THE SYMMOPS
    1    5   10   14
 NUMBER OF ATOMS EQUIVALENT BY SYMMETRY    3
 SEQUENCE NUMBERS OF THESE ATOMS
   26   30   25
 SEQUENCE NUMBERS OF THE CORRESPONDING SYMMOPS
    2    3    4


 ATOM  30 ATOMIC NUMBER 238 - NUMBER OF SYMMOPS WHICH DO NOT MOVE THE ATOM   4
 SEQUENCE NUMBERS OF THE SYMMOPS
    1    6   10   13
 NUMBER OF ATOMS EQUIVALENT BY SYMMETRY    3
 SEQUENCE NUMBERS OF THESE ATOMS
   25   29   26
 SEQUENCE NUMBERS OF THE CORRESPONDING SYMMOPS
    2    3    4


 ATOM  31 ATOMIC NUMBER 238 - NUMBER OF SYMMOPS WHICH DO NOT MOVE THE ATOM   4
 SEQUENCE NUMBERS OF THE SYMMOPS
    1    5   10   14
 NUMBER OF ATOMS EQUIVALENT BY SYMMETRY    3
 SEQUENCE NUMBERS OF THESE ATOMS
   28   32   27
 SEQUENCE NUMBERS OF THE CORRESPONDING SYMMOPS
    2    3    4


 ATOM  32 ATOMIC NUMBER 238 - NUMBER OF SYMMOPS WHICH DO NOT MOVE THE ATOM   4
 SEQUENCE NUMBERS OF THE SYMMOPS
    1    6   10   13
 NUMBER OF ATOMS EQUIVALENT BY SYMMETRY    3
 SEQUENCE NUMBERS OF THESE ATOMS
   27   31   28
 SEQUENCE NUMBERS OF THE CORRESPONDING SYMMOPS
    2    3    4

 *****   16 SYMMOPS - TRANSLATORS IN ANGSTROM
 ***** MATRICES AND TRANSLATORS IN THE CARTESIAN REFERENCE FRAME

 ORDER   : ORDER OF THE OPERATOR

 TRANSLA : REAL TRANSLATION (WITHOUT ORIGIN SHIFT) IN CARTESIAN COORDINATES

 uvw/hkl : ORIENTATION OF THE OPERATOR IN CARTESIAN COORDINATES

 LOCATED : ORIGIN OF THE OPERATOR IN CARTESIAN COORDINATES

   NO.   1 INVERSE   1    ORDER   1        NO.   2 INVERSE   2    ORDER   2
    1.000   0.000   0.000     0.000        -1.000   0.000   0.000     0.000
    0.000   1.000   0.000     0.000         0.000  -1.000   0.000     0.000
    0.000   0.000   1.000     0.000         0.000   0.000   1.000     0.000
             OPERATION E(   1)                       OPERATION C(   2)
 DETERMINANT 1.; ROTATION(DEG)   0.      DETERMINANT 1.; ROTATION(DEG) 180.
 TRANSLA (  0.000    0.000    0.000)     TRANSLA (  0.000    0.000    0.000)
 uvw/hkl (  0.000    0.000    0.000)     uvw/hkl (  0.000    0.000    4.000)
 LOCATED (  0.000    0.000    0.000)     LOCATED (  0.000    0.000    0.000)

   NO.   3 INVERSE   3    ORDER   2        NO.   4 INVERSE   4    ORDER   2
    1.000   0.000   0.000     0.000        -1.000   0.000   0.000     0.000
    0.000  -1.000   0.000     0.000         0.000   1.000   0.000     0.000
    0.000   0.000  -1.000     0.000         0.000   0.000  -1.000     0.000
             OPERATION C(   2)                       OPERATION C(   2)
 DETERMINANT 1.; ROTATION(DEG) 180.      DETERMINANT 1.; ROTATION(DEG) 180.
 TRANSLA (  0.000    0.000    0.000)     TRANSLA (  0.000    0.000    0.000)
 uvw/hkl (  4.000    0.000    0.000)     uvw/hkl (  0.000   -4.000    0.000)
 LOCATED (  0.000    0.000    0.000)     LOCATED (  0.000    0.000    0.000)

   NO.   5 INVERSE   5    ORDER   2        NO.   6 INVERSE   6    ORDER   2
    0.000  -1.000   0.000     0.000         0.000   1.000   0.000     0.000
   -1.000   0.000   0.000     0.000         1.000   0.000   0.000     0.000
    0.000   0.000  -1.000     0.000         0.000   0.000  -1.000     0.000
             OPERATION C(   2)                       OPERATION C(   2)
 DETERMINANT 1.; ROTATION(DEG) 180.      DETERMINANT 1.; ROTATION(DEG) 180.
 TRANSLA (  0.000    0.000    0.000)     TRANSLA (  0.000    0.000    0.000)
 uvw/hkl (  2.000   -2.000    0.000)     uvw/hkl ( -2.000   -2.000    0.000)
 LOCATED (  0.000    0.000    0.000)     LOCATED (  0.000    0.000    0.000)

   NO.   7 INVERSE   8    ORDER   4        NO.   8 INVERSE   7    ORDER   4
    0.000   1.000   0.000     0.000         0.000  -1.000   0.000     0.000
   -1.000   0.000   0.000     0.000         1.000   0.000   0.000     0.000
    0.000   0.000   1.000     0.000         0.000   0.000   1.000     0.000
             OPERATION C(   4)                       OPERATION C(   4)
 DETERMINANT 1.; ROTATION(DEG)  90.      DETERMINANT 1.; ROTATION(DEG)  90.
 TRANSLA (  0.000    0.000    0.000)     TRANSLA (  0.000    0.000    0.000)
 uvw/hkl (  0.000    0.000    2.000)     uvw/hkl (  0.000    0.000    2.000)
 LOCATED (  0.000    0.000    0.000)     LOCATED (  0.000    0.000    0.000)

   NO.   9 INVERSE   9    ORDER   2        NO.  10 INVERSE  10    ORDER   2
   -1.000   0.000   0.000     0.000         1.000   0.000   0.000     0.000
    0.000  -1.000   0.000     0.000         0.000   1.000   0.000     0.000
    0.000   0.000  -1.000     0.000         0.000   0.000  -1.000     0.000
             OPERATION I(   2)                       OPERATION M(   2)
 DETERMINANT-1.; ROTATION(DEG) 180.      DETERMINANT-1.; ROTATION(DEG)   0.
 TRANSLA (  0.000    0.000    0.000)     TRANSLA (  0.000    0.000    0.000)
 uvw/hkl (  0.000    0.000    0.000)     uvw/hkl (  0.000    0.000   -2.000)
 LOCATED (  0.000    0.000    0.000)     LOCATED (  0.000    0.000    0.000)

   NO.  11 INVERSE  11    ORDER   2        NO.  12 INVERSE  12    ORDER   2
   -1.000   0.000   0.000     0.000         1.000   0.000   0.000     0.000
    0.000   1.000   0.000     0.000         0.000  -1.000   0.000     0.000
    0.000   0.000   1.000     0.000         0.000   0.000   1.000     0.000
             OPERATION M(   2)                       OPERATION M(   2)
 DETERMINANT-1.; ROTATION(DEG)   0.      DETERMINANT-1.; ROTATION(DEG)   0.
 TRANSLA (  0.000    0.000    0.000)     TRANSLA (  0.000    0.000    0.000)
 uvw/hkl (  2.000    0.000    0.000)     uvw/hkl (  0.000   -2.000    0.000)
 LOCATED (  0.000    0.000    0.000)     LOCATED (  0.000    0.000    0.000)

   NO.  13 INVERSE  13    ORDER   2        NO.  14 INVERSE  14    ORDER   2
    0.000   1.000   0.000     0.000         0.000  -1.000   0.000     0.000
    1.000   0.000   0.000     0.000        -1.000   0.000   0.000     0.000
    0.000   0.000   1.000     0.000         0.000   0.000   1.000     0.000
             OPERATION M(   2)                       OPERATION M(   2)
 DETERMINANT-1.; ROTATION(DEG)   0.      DETERMINANT-1.; ROTATION(DEG)   0.
 TRANSLA (  0.000    0.000    0.000)     TRANSLA (  0.000    0.000    0.000)
 uvw/hkl (  1.000   -1.000    0.000)     uvw/hkl (  1.000    1.000    0.000)
 LOCATED (  0.000    0.000    0.000)     LOCATED (  0.000    0.000    0.000)

   NO.  15 INVERSE  16    ORDER   4        NO.  16 INVERSE  15    ORDER   4
    0.000  -1.000   0.000     0.000         0.000   1.000   0.000     0.000
    1.000   0.000   0.000     0.000        -1.000   0.000   0.000     0.000
    0.000   0.000  -1.000     0.000         0.000   0.000  -1.000     0.000
             OPERATION S(   4)                       OPERATION S(   4)
 DETERMINANT-1.; ROTATION(DEG)  90.      DETERMINANT-1.; ROTATION(DEG)  90.
 TRANSLA (  0.000    0.000    0.000)     TRANSLA (  0.000    0.000    0.000)
 uvw/hkl (  0.000    0.000    2.000)     uvw/hkl (  0.000    0.000    2.000)
 LOCATED (  0.000    0.000    0.000)     LOCATED (  0.000    0.000    0.000)
 SSSSSSSSSSSSSSSSSSSSSSSSSSSSSSSSSSSSSSSSSSSSSSSSSSSSSSSSSSSSSSSSSSSSSSSSSSSSSS
 REDUCTION OF SYMMETRY - ATOMIC LABELS SET TO (ATOM, AT. N., LABEL)
   1(229) 1;   2(229) 1;   3(229) 1;   4(229) 2;   5(229) 2;   6(229) 1;
   7(229) 2;   8(229) 1;   9(208) 0;  10(208) 0;  11(208) 0;  12(208) 0;
  13(208) 0;  14(208) 0;  15(208) 0;  16(208) 0;  17(208) 0;  18(208) 0;
  19(208) 0;  20(208) 0;  21(208) 0;  22(208) 0;  23(208) 0;  24(208) 0;
  25(238) 0;  26(238) 0;  27(238) 0;  28(238) 0;  29(238) 0;  30(238) 0;
  31(238) 0;  32(238) 0;
 THE NUMBER OF SYMMETRY OPERATORS HAS BEEN REDUCED FROM 16 TO  4
 *******************************************************************************

 GCALCO - MAX INDICES DIRECT LATTICE VECTOR     9     9    32
 NO.OF VECTORS CREATED 6999 STARS  569 RMAX   168.68580 BOHR

 GEOMETRY FOR WAVE FUNCTION - DIMENSIONALITY OF THE SYSTEM    3
 (NON PERIODIC DIRECTION: LATTICE PARAMETER FORMALLY SET TO 500)
 *******************************************************************************
 LATTICE PARAMETERS (ANGSTROMS AND DEGREES) - BOHR = 0.5291772083 ANGSTROM
 PRIMITIVE CELL - CENTRING CODE 1/1 VOLUME=   423.813486 - DENSITY  5.731 g/cm^3
         A              B              C           ALPHA      BETA       GAMMA 
    11.10963748    11.10963748     3.43380000    90.000000  90.000000  90.000000
 *******************************************************************************
 ATOMS IN THE ASYMMETRIC UNIT   20 - ATOMS IN THE UNIT CELL:   32
     ATOM                 X/A                 Y/B                 Z/C    
 *******************************************************************************
      1 T 229 CU   -5.000000000000E-01 -5.000000000000E-01  0.000000000000E+00
      2 T 229 CU    2.500000000000E-01  2.500000000000E-01  0.000000000000E+00
      3 T 229 CU    0.000000000000E+00  0.000000000000E+00  0.000000000000E+00
      4 T 229 CU   -2.500000000000E-01 -2.500000000000E-01  0.000000000000E+00
      5 T 229 CU    2.500000000000E-01 -2.500000000000E-01  0.000000000000E+00
      6 T 229 CU    0.000000000000E+00 -5.000000000000E-01  0.000000000000E+00
      7 F 229 CU   -2.500000000000E-01  2.500000000000E-01  0.000000000000E+00
      8 F 229 CU   -5.000000000000E-01  0.000000000000E+00  0.000000000000E+00
      9 T 208 O    -3.750000000000E-01 -3.750000000000E-01  0.000000000000E+00
     10 T 208 O     3.750000000000E-01  3.750000000000E-01  0.000000000000E+00
     11 T 208 O     1.250000000000E-01  1.250000000000E-01  0.000000000000E+00
     12 T 208 O    -1.250000000000E-01 -1.250000000000E-01  0.000000000000E+00
     13 T 208 O     3.750000000000E-01 -1.250000000000E-01  0.000000000000E+00
     14 T 208 O     1.250000000000E-01 -3.750000000000E-01  0.000000000000E+00
     15 F 208 O    -1.250000000000E-01  3.750000000000E-01  0.000000000000E+00
     16 F 208 O    -3.750000000000E-01  1.250000000000E-01  0.000000000000E+00
     17 T 208 O    -3.750000000000E-01  3.750000000000E-01  0.000000000000E+00
     18 T 208 O     3.750000000000E-01  1.250000000000E-01  0.000000000000E+00
     19 T 208 O     1.250000000000E-01 -1.250000000000E-01  0.000000000000E+00
     20 T 208 O    -1.250000000000E-01 -3.750000000000E-01  0.000000000000E+00
     21 F 208 O     3.750000000000E-01 -3.750000000000E-01  0.000000000000E+00
     22 F 208 O     1.250000000000E-01  3.750000000000E-01  0.000000000000E+00
     23 F 208 O    -1.250000000000E-01  1.250000000000E-01  0.000000000000E+00
     24 F 208 O    -3.750000000000E-01 -1.250000000000E-01  0.000000000000E+00
     25 T 238 SR   -2.500000000000E-01 -5.000000000000E-01  5.000000000000E-01
     26 T 238 SR   -5.000000000000E-01  2.500000000000E-01  5.000000000000E-01
     27 T 238 SR    2.500000000000E-01  0.000000000000E+00  5.000000000000E-01
     28 T 238 SR    0.000000000000E+00 -2.500000000000E-01  5.000000000000E-01
     29 F 238 SR   -5.000000000000E-01 -2.500000000000E-01  5.000000000000E-01
     30 F 238 SR    2.500000000000E-01 -5.000000000000E-01  5.000000000000E-01
     31 F 238 SR    0.000000000000E+00  2.500000000000E-01  5.000000000000E-01
     32 F 238 SR   -2.500000000000E-01  0.000000000000E+00  5.000000000000E-01

 T = ATOM BELONGING TO THE ASYMMETRIC UNIT

 ****    4 SYMMOPS - TRANSLATORS IN FRACTIONAL UNITS
 **** MATRICES AND TRANSLATORS IN THE CRYSTALLOGRAPHIC REFERENCE FRAME
   V INV                    ROTATION MATRICES                   TRANSLATORS
   1   1  1.00  0.00  0.00  0.00  1.00  0.00  0.00  0.00  1.00  0.00  0.00  0.00
   2   2 -0.00  1.00  0.00  1.00 -0.00  0.00  0.00  0.00 -1.00  0.00  0.00  0.00
   3   3  1.00 -0.00  0.00 -0.00  1.00  0.00  0.00  0.00 -1.00  0.00  0.00  0.00
   4   4 -0.00  1.00  0.00  1.00 -0.00  0.00  0.00  0.00  1.00  0.00  0.00  0.00

 DIRECT LATTICE VECTORS CARTESIAN COMPONENTS (ANGSTROM)
          X                    Y                    Z
  -0.785570000000E+01  -0.785570000000E+01   0.000000000000E+00
   0.785570000000E+01  -0.785570000000E+01   0.000000000000E+00
   0.000000000000E+00   0.000000000000E+00   0.343380000000E+01


 CARTESIAN COORDINATES - PRIMITIVE CELL
 *******************************************************************************
 *      ATOM          X(ANGSTROM)         Y(ANGSTROM)         Z(ANGSTROM)
 *******************************************************************************
    1   229 CU    0.000000000000E+00 -7.855700000000E+00  0.000000000000E+00
    2   229 CU    0.000000000000E+00 -3.927850000000E+00  0.000000000000E+00
    3   229 CU    0.000000000000E+00  0.000000000000E+00  0.000000000000E+00
    4   229 CU    4.700037766092E-16  3.927850000000E+00  0.000000000000E+00
    5   229 CU   -3.927850000000E+00  1.645013218132E-15  0.000000000000E+00
    6   229 CU    3.927850000000E+00 -3.927850000000E+00  0.000000000000E+00
    7   229 CU    3.927850000000E+00  4.700037766092E-16  0.000000000000E+00
    8   229 CU   -3.927850000000E+00 -3.927850000000E+00  0.000000000000E+00
    9   208 O    -9.400075532184E-16  5.891775000000E+00  0.000000000000E+00
   10   208 O    -9.400075532184E-16 -5.891775000000E+00  0.000000000000E+00
   11   208 O     0.000000000000E+00 -1.963925000000E+00  0.000000000000E+00
   12   208 O     4.700037766092E-16  1.963925000000E+00  0.000000000000E+00
   13   208 O    -3.927850000000E+00 -1.963925000000E+00  0.000000000000E+00
   14   208 O    -3.927850000000E+00  1.963925000000E+00  0.000000000000E+00
   15   208 O     3.927850000000E+00 -1.963925000000E+00  0.000000000000E+00
   16   208 O     3.927850000000E+00  1.963925000000E+00  0.000000000000E+00
   17   208 O     5.891775000000E+00  9.400075532184E-16  0.000000000000E+00
   18   208 O    -1.963925000000E+00 -3.927850000000E+00  0.000000000000E+00
   19   208 O    -1.963925000000E+00  0.000000000000E+00  0.000000000000E+00
   20   208 O    -1.963925000000E+00  3.927850000000E+00  0.000000000000E+00
   21   208 O    -5.891775000000E+00  1.880015106437E-15  0.000000000000E+00
   22   208 O     1.963925000000E+00 -3.927850000000E+00  0.000000000000E+00
   23   208 O     1.963925000000E+00  4.700037766092E-16  0.000000000000E+00
   24   208 O     1.963925000000E+00  3.927850000000E+00  0.000000000000E+00
   25   238 SR    5.891775000000E+00 -1.963925000000E+00  1.716900000000E+00
   26   238 SR   -1.963925000000E+00 -5.891775000000E+00  1.716900000000E+00
   27   238 SR   -1.963925000000E+00 -1.963925000000E+00  1.716900000000E+00
   28   238 SR   -1.963925000000E+00  1.963925000000E+00  1.716900000000E+00
   29   238 SR   -5.891775000000E+00 -1.963925000000E+00  1.716900000000E+00
   30   238 SR    1.963925000000E+00 -5.891775000000E+00  1.716900000000E+00
   31   238 SR    1.963925000000E+00 -1.963925000000E+00  1.716900000000E+00
   32   238 SR    1.963925000000E+00  1.963925000000E+00  1.716900000000E+00

 *******************************************************************************
 *** PSEUDOPOTENTIAL INFORMATION ***
 *******************************************************************************

 ATOMIC NUMBER  29, NUCLEAR CHARGE 19.000, GIVEN IN INPUT       PSEUDOPOTENTIAL
   TYPE       EXPONENT      COEFF.    N      EXPONENT      COEFF.    N
  W0 TMS     6.2514963   19.0000000  -1     6.7272533  118.7784294   1
             6.6102459 -105.8998240   0
  P0 TMS    12.3656871  127.3506942   0
  P1 TMS    11.1607294   71.2298490   0

 ATOMIC NUMBER   8, NUCLEAR CHARGE  6.000, GIVEN IN INPUT       PSEUDOPOTENTIAL
   TYPE       EXPONENT      COEFF.    N      EXPONENT      COEFF.    N
  W0 TMS     9.2979390    6.0000000  -1     8.8649220   55.7876342   1
             8.6292567  -38.8197850   0
  P0 TMS     8.7192445   38.4191413   0

 ATOMIC NUMBER  38, NUCLEAR CHARGE  2.000, GIVEN IN INPUT       PSEUDOPOTENTIAL
   TYPE       EXPONENT      COEFF.    N      EXPONENT      COEFF.    N
  W0 TMS     4.3839388    2.0000000  -1     3.1964983    8.7678775   1
             0.9899150  -14.2552431   0
  P0 TMS     1.2868349  146.8716052   0
  P1 TMS     0.9567448  140.0262284   0
  P2 TMS     1.9483165   24.4454878   0

 *******************************************************************************
 LOCAL ATOMIC FUNCTIONS BASIS SET
 *******************************************************************************
   ATOM   X(AU)   Y(AU)   Z(AU)  N. TYPE  EXPONENT  S COEF   P COEF   D/F/G COEF
 *******************************************************************************
   1 CU   0.000 -14.845   0.000
                                  1 S  
                                         2.785E+01-1.934E-02 0.000E+00 0.000E+00
                                         2.142E+01 8.861E-02 0.000E+00 0.000E+00
                                         1.054E+01-3.559E-01 0.000E+00 0.000E+00
                                         2.536E+00 5.381E-01 0.000E+00 0.000E+00
                                         1.250E+00 5.111E-01 0.000E+00 0.000E+00
                                         5.998E-01 1.476E-01 0.000E+00 0.000E+00
                                  2 S  
                                         2.785E+01-2.653E-03 0.000E+00 0.000E+00
                                         2.142E+01-7.542E-03 0.000E+00 0.000E+00
                                         1.054E+01 7.976E-02 0.000E+00 0.000E+00
                                         2.536E+00-1.553E-01 0.000E+00 0.000E+00
                                         1.250E+00-2.531E-01 0.000E+00 0.000E+00
                                         5.998E-01-2.817E-02 0.000E+00 0.000E+00
                           3-     5 P  
                                         1.859E+01 0.000E+00 3.652E-03 0.000E+00
                                         1.430E+01 0.000E+00-3.708E-02 0.000E+00
                                         5.631E+00 0.000E+00 2.171E-01 0.000E+00
                                         2.683E+00 0.000E+00 4.410E-01 0.000E+00
                                         1.259E+00 0.000E+00 3.587E-01 0.000E+00
                                         5.741E-01 0.000E+00 1.148E-01 0.000E+00
                                         2.092E-01 0.000E+00 7.316E-03 0.000E+00
                           6-    10 D  
                                         1.579E+01 0.000E+00 0.000E+00 8.422E-02
                                         7.203E+00 0.000E+00 0.000E+00 2.554E-01
                                         2.974E+00 0.000E+00 0.000E+00 3.500E-01
                                         1.207E+00 0.000E+00 0.000E+00 3.417E-01
                                         4.640E-01 0.000E+00 0.000E+00 2.417E-01
                          11-    17 F  
                                         1.692E+00 0.000E+00 0.000E+00 1.000E+00
                                 18 S  
                                         2.000E-01 1.000E+00 0.000E+00 0.000E+00
                                 19 S  
                                         6.000E-01 1.000E+00 0.000E+00 0.000E+00
                          20-    22 P  
                                         2.000E-01 0.000E+00 1.000E+00 0.000E+00
                          23-    25 P  
                                         6.000E-01 0.000E+00 1.000E+00 0.000E+00
                          26-    30 D  
                                         2.000E-01 0.000E+00 0.000E+00 1.000E+00
                          31-    35 D  
                                         6.000E-01 0.000E+00 0.000E+00 1.000E+00
   2 CU   0.000  -7.423   0.000
   3 CU   0.000   0.000   0.000
   4 CU   0.000   7.423   0.000
   5 CU  -7.423   0.000   0.000
   6 CU   7.423  -7.423   0.000
   7 CU   7.423   0.000   0.000
   8 CU  -7.423  -7.423   0.000
   9 O   -0.000  11.134   0.000
                                281 S  
                                         2.680E-01 3.048E-01 0.000E+00 0.000E+00
                                         5.731E-01 4.538E-01 0.000E+00 0.000E+00
                                         1.225E+00 2.959E-01 0.000E+00 0.000E+00
                                         2.620E+00 1.957E-02 0.000E+00 0.000E+00
                                         5.603E+00-1.286E-01 0.000E+00 0.000E+00
                                         1.198E+01 1.202E-02 0.000E+00 0.000E+00
                                         2.562E+01 4.070E-04 0.000E+00 0.000E+00
                                         5.478E+01-7.600E-05 0.000E+00 0.000E+00
                         282-   284 P  
                                         3.337E-01 0.000E+00 2.560E-01 0.000E+00
                                         6.666E-01 0.000E+00 2.819E-01 0.000E+00
                                         1.332E+00 0.000E+00 2.428E-01 0.000E+00
                                         2.661E+00 0.000E+00 1.611E-01 0.000E+00
                                         5.316E+00 0.000E+00 8.231E-02 0.000E+00
                                         1.062E+01 0.000E+00 3.990E-02 0.000E+00
                                         2.122E+01 0.000E+00 4.679E-03 0.000E+00
                         285-   289 D  
                                         6.693E-01 0.000E+00 0.000E+00 1.000E+00
                         290-   296 F  
                                         1.423E+00 0.000E+00 0.000E+00 1.000E+00
                                297 S  
                                         2.000E-01 1.000E+00 0.000E+00 0.000E+00
                                298 S  
                                         6.000E-01 1.000E+00 0.000E+00 0.000E+00
                         299-   301 P  
                                         2.000E-01 0.000E+00 1.000E+00 0.000E+00
                         302-   304 P  
                                         6.000E-01 0.000E+00 1.000E+00 0.000E+00
  10 O   -0.000 -11.134   0.000
  11 O    0.000  -3.711   0.000
  12 O    0.000   3.711   0.000
  13 O   -7.423  -3.711   0.000
  14 O   -7.423   3.711   0.000
  15 O    7.423  -3.711   0.000
  16 O    7.423   3.711   0.000
  17 O   11.134   0.000   0.000
  18 O   -3.711  -7.423   0.000
  19 O   -3.711   0.000   0.000
  20 O   -3.711   7.423   0.000
  21 O  -11.134   0.000   0.000
  22 O    3.711  -7.423   0.000
  23 O    3.711   0.000   0.000
  24 O    3.711   7.423   0.000
  25 SR  11.134  -3.711   3.244
                                665 S  
                                         2.177E-01-9.389E-02 0.000E+00 0.000E+00
                                         4.871E-01-2.476E-01 0.000E+00 0.000E+00
                                         1.090E+00 1.601E-01 0.000E+00 0.000E+00
                                         2.439E+00-4.360E-02 0.000E+00 0.000E+00
                                         5.457E+00 8.684E-03 0.000E+00 0.000E+00
                                         1.221E+01-1.296E-03 0.000E+00 0.000E+00
                         666-   668 P  
                                         2.236E-01 0.000E+00-4.747E-02 0.000E+00
                                         4.507E-01 0.000E+00-1.710E-01 0.000E+00
                                         9.086E-01 0.000E+00 1.048E-01 0.000E+00
                                         1.831E+00 0.000E+00-2.952E-02 0.000E+00
                                         3.692E+00 0.000E+00 6.196E-03 0.000E+00
                                         7.442E+00 0.000E+00-9.550E-04 0.000E+00
                         669-   673 D  
                                         5.283E-01 0.000E+00 0.000E+00 1.000E+00
                                674 S  
                                         2.000E-01 1.000E+00 0.000E+00 0.000E+00
                                675 S  
                                         6.000E-01 1.000E+00 0.000E+00 0.000E+00
                         676-   678 P  
                                         2.000E-01 0.000E+00 1.000E+00 0.000E+00
                         679-   681 P  
                                         6.000E-01 0.000E+00 1.000E+00 0.000E+00
  26 SR  -3.711 -11.134   3.244
  27 SR  -3.711  -3.711   3.244
  28 SR  -3.711   3.711   3.244
  29 SR -11.134  -3.711   3.244
  30 SR   3.711 -11.134   3.244
  31 SR   3.711  -3.711   3.244
  32 SR   3.711   3.711   3.244
 INFORMATION **** SET_MPP **** PCRYSTAL CALCULATION
 INFORMATION **** READM2 **** NEW DEFAULT: FOCK/KS MATRIX MIXING SET TO 30 %
 INFORMATION **** READM2 **** NEW DEFAULT: FULL DIRECT SCF MODE
 INFORMATION **** READM2 **** NEW DEFAULT: COULOMB BIPOLAR BUFFER SET TO 32 Mb
 INFORMATION **** READM2 **** NEW DEFAULT: EXCHANGE BIPOLAR BUFFER SET TO 32 Mb

 *******************************************************************************
 NEW DEFAULT: DFT INTEGRATION GRID INCREASED TO XLGRID
 NEW DEFAULT: DIIS ACCELERATOR ACTIVE
 USE KEYWORD NODIIS TO TURN IT OFF
 *******************************************************************************

 INFORMATION **** READM2 **** FULL DIRECT SCF (MONO AND BIEL INT) SELECTED
 INFORMATION **** BIPOSIZE **** COULOMB BIPOLAR BUFFER SET TO   100000000
 INFORMATION **** EXCHSIZE **** EXCHANGE BIPOLAR BUFFER SIZE SET TO    10000000
 INFORMATION **** TOLDEE **** SCF TOL ON TOTAL ENERGY SET TO          10
 INFORMATION **** TOLINTEG **** COULOMB AND EXCHANGE SERIES TOLERANCES MODIFIED
 INFORMATION **** MAXCYCLE **** MAX NUMBER OF SCF CYCLES SET TO         200
 INFORMATION **** SMEAR **** FERMI SMEARING ACTIVE
 FERMI SMEARING - TEMPERATURE SMEARING OF FERMI SURFACE  0.1000E-12
 INFORMATION **** SAVEWF **** not fully tested
 INFORMATION **** SPINLOCK **** LOCK IN A GIVEN SPIN STATE
 ALPHA-BETA ELECTRONS LOCKED TO   2 FOR 200 SCF CYCLES
 SSSSSSSSSSSSSSSSSSSSSSSSSSSSSSSSSSSSSSSSSSSSSSSSSSSSSSSSSSSSSSSSSSSSSSSSSSSSSS
 ATOMIC SPINS SET TO (ATOM, AT. N., SPIN)
   1 229 1   2 229 1   3 229 1   4 229-1   5 229-1   6 229 1   7 229-1   8 229 1
   9 208 0  10 208 0  11 208 0  12 208 0  13 208 0  14 208 0  15 208 0  16 208 0
  17 208 0  18 208 0  19 208 0  20 208 0  21 208 0  22 208 0  23 208 0  24 208 0
  25 238 0  26 238 0  27 238 0  28 238 0  29 238 0  30 238 0  31 238 0  32 238 0
 *******************************************************************************
 N. OF ATOMS PER CELL        32  COULOMB OVERLAP TOL         (T1) 10**   -8
 NUMBER OF SHELLS           272  COULOMB PENETRATION TOL     (T2) 10**   -8
 NUMBER OF AO               800  EXCHANGE OVERLAP TOL        (T3) 10**   -8
 N. OF ELECTRONS PER CELL   264  EXCHANGE PSEUDO OVP (F(G))  (T4) 10**   -8
 CORE ELECTRONS PER CELL      0  EXCHANGE PSEUDO OVP (P(G))  (T5) 10**  -16
 N. OF SYMMETRY OPERATORS     4  POLE ORDER IN MONO ZONE                  4
 *******************************************************************************
 TYPE OF CALCULATION :  UNRESTRICTED OPEN SHELL
 KOHN-SHAM HAMILTONIAN

 (EXCHANGE)[CORRELATION] FUNCTIONAL:(PERDEW-BURKE-ERNZERHOF)[PERDEW-BURKE-ERNZERHOF]


 HYBRID EXCHANGE - PERCENTAGE OF FOCK EXCHANGE    25.0000

 SPIN POLARIZED DFT SELECTED
 CORE  PSEUDO POTENTIAL         TOL. ON PSEUDO              (TP) 10**- 6
 SPIN POLARIZATION - ALPHA-BETA =  2 FOR 200 CYCLES

 CAPPA:IS1  5;IS2  5;IS3  4; K PTS MONK NET  27; SYMMOPS:K SPACE   8;G SPACE   4

 *******************************************************************************
 MAX NUMBER OF SCF CYCLES     200  CONVERGENCE ON DELTAP        10**-20
 WEIGHT OF F(I) IN F(I+1)      90% CONVERGENCE ON ENERGY        10**-10
 SPIN POLARIZATION - ALPHA-BETA =  2 FOR 200 CYCLES
 SHRINK. FACT.(MONKH.)    5  5  4  NUMBER OF K POINTS IN THE IBZ     27
 SHRINKING FACTOR(GILAT NET)   10  NUMBER OF K POINTS(GILAT NET)    155
 *******************************************************************************
 *** K POINTS COORDINATES (OBLIQUE COORDINATES IN UNITS OF IS =  5)
   1-R(  0  0  0)   2-C(  1  0  0)   3-C(  2  0  0)   4-C(  1  1  0)
   5-C(  2  1  0)   6-C(  3  1  0)   7-C(  4  1  0)   8-C(  2  2  0)
   9-C(  3  2  0)  10-C(  0  0  1)  11-C(  1  0  1)  12-C(  2  0  1)
  13-C(  1  1  1)  14-C(  2  1  1)  15-C(  3  1  1)  16-C(  4  1  1)
  17-C(  2  2  1)  18-C(  3  2  1)  19-R(  0  0  2)  20-C(  1  0  2)
  21-C(  2  0  2)  22-C(  1  1  2)  23-C(  2  1  2)  24-C(  3  1  2)
  25-C(  4  1  2)  26-C(  2  2  2)  27-C(  3  2  2)

 DIRECT LATTICE VECTORS COMPON. (A.U.)     RECIP. LATTICE VECTORS COMPON. (A.U.) 
        X            Y            Z              X            Y            Z
  -14.8451216  -14.8451216    0.0000000     -0.2116246   -0.2116246    0.0000000
   14.8451216  -14.8451216    0.0000000      0.2116246   -0.2116246    0.0000000
    0.0000000    0.0000000    6.4889416      0.0000000    0.0000000    0.9682912

 DISK SPACE FOR EIGENVECTORS (FTN 10)    33280000 REALS

 SYMMETRY ADAPTION OF THE BLOCH FUNCTIONS ENABLED
 TTTTTTTTTTTTTTTTTTTTTTTTTTTTTT gordsh1     TELAPSE        1.65 TCPU        0.06

 MATRIX SIZE: P(G) 2526000, F(G)  450872, P(G) IRR  418140, F(G) IRR  164696
 MAX G-VECTOR INDEX FOR 1- AND 2-ELECTRON INTEGRALS  75

 TTTTTTTTTTTTTTTTTTTTTTTTTTTTTT INPUT       TELAPSE        1.71 TCPU        0.09

 NEIGHBORS OF THE NON-EQUIVALENT ATOMS

 N = NUMBER OF NEIGHBORS AT DISTANCE R
    ATOM  N     R/ANG      R/AU   NEIGHBORS (ATOM LABELS AND CELL INDICES)
   1 CU   4     1.9639     3.7113    9 O    1 1 0   10 O    0 0 0   17 O    1 0 0
                                    21 O    0 1 0
   1 CU   8     3.2652     6.1704   25 SR   1 0 0   25 SR   1 0-1   26 SR   0 0-1
                                    26 SR   0 0 0   29 SR   0 1-1   29 SR   0 1 0
                                    30 SR   0 0 0   30 SR   0 0-1
   1 CU   2     3.4338     6.4889    1 CU   0 0-1    1 CU   0 0 1
   1 CU   4     3.9278     7.4226    2 CU   0 0 0    4 CU   1 1 0    5 CU   0 1 0
                                     7 CU   1 0 0
   1 CU   8     3.9558     7.4753    9 O    1 1 1    9 O    1 1-1   10 O    0 0 1
                                    10 O    0 0-1   17 O    1 0 1   17 O    1 0-1
                                    21 O    0 1-1   21 O    0 1 1
   1 CU   8     4.3915     8.2987   13 O    0 1 0   14 O    0 1 0   15 O    1 0 0
                                    16 O    1 0 0   18 O    0 0 0   20 O    1 1 0
                                    22 O    0 0 0   24 O    1 1 0

   2 CU   4     1.9639     3.7113   10 O    0 0 0   11 O    0 0 0   18 O    0 0 0
                                    22 O    0 0 0
   2 CU   8     3.2652     6.1704   26 SR   0 0-1   26 SR   0 0 0   27 SR   0 0-1
                                    27 SR   0 0 0   30 SR   0 0 0   30 SR   0 0-1
                                    31 SR   0 0 0   31 SR   0 0-1
   2 CU   2     3.4338     6.4889    2 CU   0 0-1    2 CU   0 0 1
   2 CU   4     3.9278     7.4226    1 CU   0 0 0    3 CU   0 0 0    6 CU   0 0 0
                                     8 CU   0 0 0
   2 CU   8     3.9558     7.4753   10 O    0 0-1   10 O    0 0 1   11 O    0 0 1
                                    11 O    0 0-1   18 O    0 0-1   18 O    0 0 1
                                    22 O    0 0 1   22 O    0 0-1
   2 CU   8     4.3915     8.2987   13 O    0 0 0   14 O    0 1 0   15 O    0 0 0
                                    16 O    1 0 0   17 O    1 0 0   19 O    0 0 0
                                    21 O    0 1 0   23 O    0 0 0

   3 CU   4     1.9639     3.7113   11 O    0 0 0   12 O    0 0 0   19 O    0 0 0
                                    23 O    0 0 0
   3 CU   8     3.2652     6.1704   27 SR   0 0-1   27 SR   0 0 0   28 SR   0 0-1
                                    28 SR   0 0 0   31 SR   0 0 0   31 SR   0 0-1
                                    32 SR   0 0 0   32 SR   0 0-1
   3 CU   2     3.4338     6.4889    3 CU   0 0-1    3 CU   0 0 1
   3 CU   4     3.9278     7.4226    2 CU   0 0 0    4 CU   0 0 0    5 CU   0 0 0
                                     7 CU   0 0 0
   3 CU   8     3.9558     7.4753   11 O    0 0-1   11 O    0 0 1   12 O    0 0 1
                                    12 O    0 0-1   19 O    0 0-1   19 O    0 0 1
                                    23 O    0 0 1   23 O    0 0-1
   3 CU   8     4.3915     8.2987   13 O    0 0 0   14 O    0 0 0   15 O    0 0 0
                                    16 O    0 0 0   18 O    0 0 0   20 O    0 0 0
                                    22 O    0 0 0   24 O    0 0 0

   4 CU   4     1.9639     3.7113    9 O    0 0 0   12 O    0 0 0   20 O    0 0 0
                                    24 O    0 0 0
   4 CU   8     3.2652     6.1704   25 SR   0-1 0   25 SR   0-1-1   28 SR   0 0-1
                                    28 SR   0 0 0   29 SR  -1 0-1   29 SR  -1 0 0
                                    32 SR   0 0 0   32 SR   0 0-1
   4 CU   2     3.4338     6.4889    4 CU   0 0-1    4 CU   0 0 1
   4 CU   4     3.9279     7.4226    1 CU  -1-1 0    3 CU   0 0 0    6 CU   0-1 0
                                     8 CU  -1 0 0
   4 CU   8     3.9558     7.4753    9 O    0 0 1    9 O    0 0-1   12 O    0 0-1
                                    12 O    0 0 1   20 O    0 0-1   20 O    0 0 1
                                    24 O    0 0 1   24 O    0 0-1
   4 CU   8     4.3915     8.2987   13 O   -1 0 0   14 O    0 0 0   15 O    0-1 0
                                    16 O    0 0 0   17 O    0-1 0   19 O    0 0 0
                                    21 O   -1 0 0   23 O    0 0 0

   5 CU   4     1.9639     3.7113   13 O    0 0 0   14 O    0 0 0   19 O    0 0 0
                                    21 O    0 0 0
   5 CU   8     3.2652     6.1704   27 SR   0 0 0   27 SR   0 0-1   28 SR   0 0 0
                                    28 SR   0 0-1   29 SR   0 0-1   29 SR   0 0 0
                                    30 SR   0-1 0   30 SR   0-1-1
   5 CU   2     3.4338     6.4889    5 CU   0 0-1    5 CU   0 0 1
   5 CU   4     3.9278     7.4226    1 CU   0-1 0    3 CU   0 0 0    6 CU   0-1 0
                                     8 CU   0 0 0
   5 CU   8     3.9558     7.4753   13 O    0 0-1   13 O    0 0 1   14 O    0 0 1
                                    14 O    0 0-1   19 O    0 0 1   19 O    0 0-1
                                    21 O    0 0-1   21 O    0 0 1
   5 CU   8     4.3915     8.2987    9 O    1 0 0   10 O    0-1 0   11 O    0 0 0
                                    12 O    0 0 0   18 O    0 0 0   20 O    0 0 0
                                    22 O    0-1 0   24 O    1 0 0

   6 CU   4     1.9639     3.7113   14 O    0 1 0   15 O    0 0 0   20 O    0 1 0
                                    22 O    0 0 0
   6 CU   8     3.2652     6.1704   25 SR   0 0 0   25 SR   0 0-1   28 SR   0 1-1
                                    28 SR   0 1 0   30 SR   0 0-1   30 SR   0 0 0
                                    31 SR   0 0-1   31 SR   0 0 0
   6 CU   2     3.4338     6.4889    6 CU   0 0-1    6 CU   0 0 1
   6 CU   4     3.9278     7.4226    2 CU   0 0 0    4 CU   0 1 0    5 CU   0 1 0
                                     7 CU   0 0 0
   6 CU   8     3.9558     7.4753   14 O    0 1 1   14 O    0 1-1   15 O    0 0 1
                                    15 O    0 0-1   20 O    0 1-1   20 O    0 1 1
                                    22 O    0 0-1   22 O    0 0 1
   6 CU   8     4.3915     8.2987    9 O    0 1 0   10 O    0 0 0   11 O    0 0 0
                                    12 O    0 1 0   17 O    0 0 0   19 O    0 1 0
                                    21 O    0 1 0   23 O    0 0 0

   9 O    2     1.9639     3.7113    1 CU  -1-1 0    4 CU   0 0 0
   9 O    4     2.6086     4.9295   25 SR   0-1 0   25 SR   0-1-1   29 SR  -1 0-1
                                    29 SR  -1 0 0
   9 O    4     2.7774     5.2485   17 O    0-1 0   20 O    0 0 0   21 O   -1 0 0
                                    24 O    0 0 0
   9 O    2     3.4338     6.4889    9 O    0 0-1    9 O    0 0 1
   9 O    4     3.9279     7.4226   10 O   -1-1 0   12 O    0 0 0   13 O   -1 0 0
                                    15 O    0-1 0
   9 O    4     3.9558     7.4753    1 CU  -1-1-1    1 CU  -1-1 1    4 CU   0 0-1
                                     4 CU   0 0 1

  10 O    2     1.9639     3.7113    1 CU   0 0 0    2 CU   0 0 0
  10 O    4     2.6086     4.9295   26 SR   0 0-1   26 SR   0 0 0   30 SR   0 0 0
                                    30 SR   0 0-1
  10 O    4     2.7774     5.2485   17 O    1 0 0   18 O    0 0 0   21 O    0 1 0
                                    22 O    0 0 0
  10 O    2     3.4338     6.4889   10 O    0 0-1   10 O    0 0 1
  10 O    4     3.9279     7.4226    9 O    1 1 0   11 O    0 0 0   14 O    0 1 0
                                    16 O    1 0 0
  10 O    4     3.9558     7.4753    1 CU   0 0-1    1 CU   0 0 1    2 CU   0 0 1
                                     2 CU   0 0-1

  11 O    2     1.9639     3.7113    2 CU   0 0 0    3 CU   0 0 0
  11 O    4     2.6086     4.9295   27 SR   0 0-1   27 SR   0 0 0   31 SR   0 0 0
                                    31 SR   0 0-1
  11 O    4     2.7774     5.2485   18 O    0 0 0   19 O    0 0 0   22 O    0 0 0
                                    23 O    0 0 0
  11 O    2     3.4338     6.4889   11 O    0 0-1   11 O    0 0 1
  11 O    4     3.9278     7.4226   10 O    0 0 0   12 O    0 0 0   13 O    0 0 0
                                    15 O    0 0 0
  11 O    4     3.9558     7.4753    2 CU   0 0-1    2 CU   0 0 1    3 CU   0 0 1
                                     3 CU   0 0-1

  12 O    2     1.9639     3.7113    3 CU   0 0 0    4 CU   0 0 0
  12 O    4     2.6086     4.9295   28 SR   0 0-1   28 SR   0 0 0   32 SR   0 0 0
                                    32 SR   0 0-1
  12 O    4     2.7774     5.2485   19 O    0 0 0   20 O    0 0 0   23 O    0 0 0
                                    24 O    0 0 0
  12 O    2     3.4338     6.4889   12 O    0 0-1   12 O    0 0 1
  12 O    4     3.9279     7.4226    9 O    0 0 0   11 O    0 0 0   14 O    0 0 0
                                    16 O    0 0 0
  12 O    4     3.9558     7.4753    3 CU   0 0-1    3 CU   0 0 1    4 CU   0 0 1
                                     4 CU   0 0-1

  13 O    2     1.9639     3.7113    5 CU   0 0 0    8 CU   0 0 0
  13 O    4     2.6086     4.9295   27 SR   0 0 0   27 SR   0 0-1   29 SR   0 0-1
                                    29 SR   0 0 0
  13 O    4     2.7774     5.2485   18 O    0 0 0   19 O    0 0 0   21 O    0 0 0
                                    24 O    1 0 0
  13 O    2     3.4338     6.4889   13 O    0 0-1   13 O    0 0 1
  13 O    4     3.9278     7.4226    9 O    1 0 0   11 O    0 0 0   14 O    0 0 0
                                    16 O    1 0 0
  13 O    4     3.9558     7.4753    5 CU   0 0 1    5 CU   0 0-1    8 CU   0 0-1
                                     8 CU   0 0 1

  14 O    2     1.9639     3.7113    5 CU   0 0 0    6 CU   0-1 0
  14 O    4     2.6086     4.9295   28 SR   0 0 0   28 SR   0 0-1   30 SR   0-1 0
                                    30 SR   0-1-1
  14 O    4     2.7774     5.2485   19 O    0 0 0   20 O    0 0 0   21 O    0 0 0
                                    22 O    0-1 0
  14 O    2     3.4338     6.4889   14 O    0 0-1   14 O    0 0 1
  14 O    4     3.9278     7.4226   10 O    0-1 0   12 O    0 0 0   13 O    0 0 0
                                    15 O    0-1 0
  14 O    4     3.9558     7.4753    5 CU   0 0-1    5 CU   0 0 1    6 CU   0-1-1
                                     6 CU   0-1 1

  17 O    2     1.9639     3.7113    1 CU  -1 0 0    7 CU   0 0 0
  17 O    4     2.6086     4.9295   25 SR   0 0 0   25 SR   0 0-1   26 SR  -1 0-1
                                    26 SR  -1 0 0
  17 O    4     2.7774     5.2485    9 O    0 1 0   10 O   -1 0 0   15 O    0 0 0
                                    16 O    0 0 0
  17 O    2     3.4338     6.4889   17 O    0 0-1   17 O    0 0 1
  17 O    4     3.9278     7.4226   18 O   -1 0 0   20 O    0 1 0   21 O   -1 1 0
                                    23 O    0 0 0
  17 O    4     3.9558     7.4753    1 CU  -1 0-1    1 CU  -1 0 1    7 CU   0 0-1
                                     7 CU   0 0 1

  18 O    2     1.9639     3.7113    2 CU   0 0 0    8 CU   0 0 0
  18 O    4     2.6086     4.9295   26 SR   0 0 0   26 SR   0 0-1   27 SR   0 0 0
                                    27 SR   0 0-1
  18 O    4     2.7774     5.2485   10 O    0 0 0   11 O    0 0 0   13 O    0 0 0
                                    16 O    1 0 0
  18 O    2     3.4338     6.4889   18 O    0 0-1   18 O    0 0 1
  18 O    4     3.9278     7.4226   17 O    1 0 0   19 O    0 0 0   22 O    0 0 0
                                    24 O    1 0 0
  18 O    4     3.9558     7.4753    2 CU   0 0 1    2 CU   0 0-1    8 CU   0 0-1
                                     8 CU   0 0 1

  19 O    2     1.9639     3.7113    3 CU   0 0 0    5 CU   0 0 0
  19 O    4     2.6086     4.9295   27 SR   0 0 0   27 SR   0 0-1   28 SR   0 0 0
                                    28 SR   0 0-1
  19 O    4     2.7774     5.2485   11 O    0 0 0   12 O    0 0 0   13 O    0 0 0
                                    14 O    0 0 0
  19 O    2     3.4338     6.4889   19 O    0 0-1   19 O    0 0 1
  19 O    4     3.9278     7.4226   18 O    0 0 0   20 O    0 0 0   21 O    0 0 0
                                    23 O    0 0 0
  19 O    4     3.9558     7.4753    3 CU   0 0 1    3 CU   0 0-1    5 CU   0 0-1
                                     5 CU   0 0 1

  20 O    2     1.9639     3.7113    4 CU   0 0 0    6 CU   0-1 0
  20 O    4     2.6086     4.9295   25 SR   0-1 0   25 SR   0-1-1   28 SR   0 0 0
                                    28 SR   0 0-1
  20 O    4     2.7774     5.2485    9 O    0 0 0   12 O    0 0 0   14 O    0 0 0
                                    15 O    0-1 0
  20 O    2     3.4338     6.4889   20 O    0 0-1   20 O    0 0 1
  20 O    4     3.9279     7.4226   17 O    0-1 0   19 O    0 0 0   22 O    0-1 0
                                    24 O    0 0 0
  20 O    4     3.9558     7.4753    4 CU   0 0 1    4 CU   0 0-1    6 CU   0-1 1
                                     6 CU   0-1-1

  25 SR   8     2.6086     4.9295    9 O    0 1 0    9 O    0 1 1   15 O    0 0 0
                                    15 O    0 0 1   17 O    0 0 0   17 O    0 0 1
                                    20 O    0 1 0   20 O    0 1 1
  25 SR   8     3.2652     6.1704    1 CU  -1 0 0    1 CU  -1 0 1    4 CU   0 1 0
                                     4 CU   0 1 1    6 CU   0 0 0    6 CU   0 0 1
                                     7 CU   0 0 0    7 CU   0 0 1
  25 SR   2     3.4338     6.4889   25 SR   0 0-1   25 SR   0 0 1
  25 SR   4     3.9278     7.4226   26 SR  -1 0 0   28 SR   0 1 0   29 SR  -1 1 0
                                    31 SR   0 0 0
  25 SR  16     4.7152     8.9104   10 O   -1 0 0   10 O   -1 0 1   12 O    0 1 0
                                    12 O    0 1 1   14 O    0 1 0   14 O    0 1 1
                                    16 O    0 0 0   16 O    0 0 1   21 O   -1 1 0
                                    21 O   -1 1 1   22 O    0 0 0   22 O    0 0 1
                                    23 O    0 0 0   23 O    0 0 1   24 O    0 1 0
                                    24 O    0 1 1
  25 SR   8     5.2172     9.8590   26 SR  -1 0 1   26 SR  -1 0-1   28 SR   0 1 1
                                    28 SR   0 1-1   29 SR  -1 1-1   29 SR  -1 1 1
                                    31 SR   0 0 1   31 SR   0 0-1

  26 SR   8     2.6086     4.9295   10 O    0 0 1   10 O    0 0 0   16 O    1 0 1
                                    16 O    1 0 0   17 O    1 0 1   17 O    1 0 0
                                    18 O    0 0 0   18 O    0 0 1
  26 SR   8     3.2652     6.1704    1 CU   0 0 1    1 CU   0 0 0    2 CU   0 0 1
                                     2 CU   0 0 0    7 CU   1 0 1    7 CU   1 0 0
                                     8 CU   0 0 0    8 CU   0 0 1
  26 SR   2     3.4338     6.4889   26 SR   0 0-1   26 SR   0 0 1
  26 SR   4     3.9278     7.4226   25 SR   1 0 0   27 SR   0 0 0   30 SR   0 0 0
                                    32 SR   1 0 0
  26 SR  16     4.7152     8.9104    9 O    1 1 0    9 O    1 1 1   11 O    0 0 1
                                    11 O    0 0 0   13 O    0 0 0   13 O    0 0 1
                                    15 O    1 0 1   15 O    1 0 0   21 O    0 1 0
                                    21 O    0 1 1   22 O    0 0 1   22 O    0 0 0
                                    23 O    1 0 1   23 O    1 0 0   24 O    1 0 0
                                    24 O    1 0 1
  26 SR   8     5.2172     9.8590   25 SR   1 0-1   25 SR   1 0 1   27 SR   0 0 1
                                    27 SR   0 0-1   30 SR   0 0-1   30 SR   0 0 1
                                    32 SR   1 0-1   32 SR   1 0 1

  27 SR   8     2.6086     4.9295   11 O    0 0 1   11 O    0 0 0   13 O    0 0 0
                                    13 O    0 0 1   18 O    0 0 0   18 O    0 0 1
                                    19 O    0 0 0   19 O    0 0 1
  27 SR   8     3.2652     6.1704    2 CU   0 0 1    2 CU   0 0 0    3 CU   0 0 1
                                     3 CU   0 0 0    5 CU   0 0 0    5 CU   0 0 1
                                     8 CU   0 0 0    8 CU   0 0 1
  27 SR   2     3.4338     6.4889   27 SR   0 0-1   27 SR   0 0 1
  27 SR   4     3.9278     7.4226   26 SR   0 0 0   28 SR   0 0 0   29 SR   0 0 0
                                    31 SR   0 0 0
  27 SR  16     4.7152     8.9104   10 O    0 0 0   10 O    0 0 1   12 O    0 0 1
                                    12 O    0 0 0   14 O    0 0 0   14 O    0 0 1
                                    16 O    1 0 1   16 O    1 0 0   21 O    0 0 0
                                    21 O    0 0 1   22 O    0 0 1   22 O    0 0 0
                                    23 O    0 0 1   23 O    0 0 0   24 O    1 0 1
                                    24 O    1 0 0
  27 SR   8     5.2172     9.8590   26 SR   0 0-1   26 SR   0 0 1   28 SR   0 0 1
                                    28 SR   0 0-1   29 SR   0 0 1   29 SR   0 0-1
                                    31 SR   0 0-1   31 SR   0 0 1

  28 SR   8     2.6086     4.9295   12 O    0 0 1   12 O    0 0 0   14 O    0 0 0
                                    14 O    0 0 1   19 O    0 0 0   19 O    0 0 1
                                    20 O    0 0 0   20 O    0 0 1
  28 SR   8     3.2652     6.1704    3 CU   0 0 1    3 CU   0 0 0    4 CU   0 0 1
                                     4 CU   0 0 0    5 CU   0 0 0    5 CU   0 0 1
                                     6 CU   0-1 1    6 CU   0-1 0
  28 SR   2     3.4338     6.4889   28 SR   0 0-1   28 SR   0 0 1
  28 SR   4     3.9279     7.4226   25 SR   0-1 0   27 SR   0 0 0   30 SR   0-1 0
                                    32 SR   0 0 0
  28 SR  16     4.7152     8.9104    9 O    0 0 1    9 O    0 0 0   11 O    0 0 0
                                    11 O    0 0 1   13 O    0 0 1   13 O    0 0 0
                                    15 O    0-1 1   15 O    0-1 0   21 O    0 0 0
                                    21 O    0 0 1   22 O    0-1 0   22 O    0-1 1
                                    23 O    0 0 1   23 O    0 0 0   24 O    0 0 1
                                    24 O    0 0 0
  28 SR   8     5.2172     9.8590   25 SR   0-1-1   25 SR   0-1 1   27 SR   0 0-1
                                    27 SR   0 0 1   30 SR   0-1-1   30 SR   0-1 1
                                    32 SR   0 0-1   32 SR   0 0 1


 SYMMETRY ALLOWED INTERNAL DEGREE(S) OF FREEDOM:  31
 TTTTTTTTTTTTTTTTTTTTTTTTTTTTTT SYMM        TELAPSE        2.86 TCPU        1.17
 TTTTTTTTTTTTTTTTTTTTTTTTTTTTTT INT_SCREEN  TELAPSE        2.87 TCPU        1.18
 INFORMATION **** EXCBUF **** EXCH. BIPO BUFFER: WORDS USED =     8273970

 DFT PARAMETERS

     ATOM       ELECTRONS   NET CHARGE   R(ANGSTROM)
   1 229  CU     17.0000      2.0000     0.73000000
   9 208  O       8.0000     -2.0000     1.40000000
  25 238  SR      0.0000      2.0000     1.18000000
[golub180:50543] 19 more processes have sent help message help-mpi-btl-openib.txt / no device params found
[golub180:50543] Set MCA parameter "orte_base_help_aggregate" to 0 to see all help / error messages

 SIZE OF GRID=     183520
 TTTTTTTTTTTTTTTTTTTTTTTTTTTTTT MAKE_GRID2  TELAPSE        5.44 TCPU        3.74
 BECKE WEIGHT FUNCTION
 RADSAFE =     2.00
 TOLERANCES - DENSITY:10**- 6; POTENTIAL:10**- 9; GRID WGT:10**-14

 RADIAL INTEGRATION  - INTERVALS (POINTS,UPPER LIMIT):            1( 75,  4.0*R)

 ANGULAR INTEGRATION - INTERVALS (ACCURACY LEVEL [N. POINTS] UPPER LIMIT):
  1(  4[  86]   0.2)  2(  8[ 194]   0.5)  3( 12[ 350]   0.9)  4( 16[ 974]   3.5)
  5( 12[ 350]9999.0)
 TTTTTTTTTTTTTTTTTTTTTTTTTTTTTT INT_CALC    TELAPSE        5.49 TCPU        3.79
 EEEEEEEEEE INT_CALC TERMINATION  DATE 24 03 2018 TIME 20:51:48.0

 *******************************************************************************
 Generated by CrystalWriter                                                      
 CRYSTAL - SCF - TYPE OF CALCULATION :  UNRESTRICTED OPEN SHELL
 *******************************************************************************

 CAPPA:IS1  5;IS2  5;IS3  4; K PTS MONK NET  27; SYMMOPS:K SPACE   8;G SPACE   4

 TTTTTTTTTTTTTTTTTTTTTTTTTTTTTT SDIK        TELAPSE        5.71 TCPU        4.00

 AAAAAAAAAAAAAAAAAAAAAAAAAAAAAAAAAAAAAAAAAAAAAAAAAAAAAAAAAAAAAAAAAAAAAAAAAAAAAAA
         ATOMIC WAVEFUNCTION(S)


 NUCLEAR CHARGE 19.0  SYMMETRY SPECIES            S    P    D
 N. ELECTRONS   17.0  NUMBER OF PRIMITIVE GTOS   14    9    7
                      NUMBER OF CONTRACTED GTOS   4    3    3
                      NUMBER OF CLOSED SHELLS     1    1    0
                      OPEN SHELL OCCUPATION       0    0    9

  ZNUC SCFIT  TOTAL HF ENERGY   KINETIC ENERGY   VIRIAL THEOREM ACCURACY
  19.0  24   -1.953432393E+02  1.248337040E+02 -2.564827712E+00  3.3E-06

 NUCLEAR CHARGE  6.0  SYMMETRY SPECIES            S    P
 N. ELECTRONS    8.0  NUMBER OF PRIMITIVE GTOS   10    9
                      NUMBER OF CONTRACTED GTOS   3    3
                      NUMBER OF CLOSED SHELLS     1    1
                      OPEN SHELL OCCUPATION       0    0

  ZNUC SCFIT  TOTAL HF ENERGY   KINETIC ENERGY   VIRIAL THEOREM ACCURACY
   6.0  43   -1.519668598E+01  1.229882609E+01 -2.235620852E+00  4.1E-06

 AAAAAAAAAAAAAAAAAAAAAAAAAAAAAAAAAAAAAAAAAAAAAAAAAAAAAAAAAAAAAAAAAAAAAAAAAAAAAAA

 CHARGE NORMALIZATION FACTOR   1.00000000
 TOTAL ATOMIC CHARGES:
  17.0000000  17.0000000  17.0000000  17.0000000  17.0000000  17.0000000
  17.0000000  17.0000000   8.0000000   8.0000000   8.0000000   8.0000000
   8.0000000   8.0000000   8.0000000   8.0000000   8.0000000   8.0000000
   8.0000000   8.0000000   8.0000000   8.0000000   8.0000000   8.0000000
   0.0000000   0.0000000   0.0000000   0.0000000   0.0000000   0.0000000
   0.0000000   0.0000000
 SUMMED SPIN DENSITY           2.00000000
 TOTAL ATOMIC SPINS  :
   1.0000000   1.0000000   1.0000000  -1.0000000  -1.0000000   1.0000000
  -1.0000000   1.0000000   0.0000000   0.0000000   0.0000000   0.0000000
   0.0000000   0.0000000   0.0000000   0.0000000   0.0000000   0.0000000
   0.0000000   0.0000000   0.0000000   0.0000000   0.0000000   0.0000000
   0.0000000   0.0000000   0.0000000   0.0000000   0.0000000   0.0000000
   0.0000000   0.0000000
 TTTTTTTTTTTTTTTTTTTTTTTTTTTTTT MOQGAD      TELAPSE        6.95 TCPU        5.23
 TTTTTTTTTTTTTTTTTTTTTTTTTTTTTT SHELLXN     TELAPSE      270.36 TCPU      265.93
 TTTTTTTTTTTTTTTTTTTTTTTTTTTTTT MONMO3      TELAPSE      304.94 TCPU      300.46
 NUMERICALLY INTEGRATED DENSITY    133.0001174674    131.0001116139
 TTTTTTTTTTTTTTTTTTTTTTTTTTTTTT NUMDFT      TELAPSE      306.66 TCPU      302.18
 CYC   0 ETOT(AU) -1.841348157515E+03 DETOT -1.84E+03 tst  0.00E+00 PX  1.00E+00
 CYCLE  0 WAVE FUNCTION SAVED IN FORTRAN UNIT 79
 TTTTTTTTTTTTTTTTTTTTTTTTTTTTTT DIIS        TELAPSE      307.03 TCPU      302.48
 TTTTTTTTTTTTTTTTTTTTTTTTTTTTTT FDIK        TELAPSE      337.76 TCPU      333.07
 SPIN LOCKING: NO ENERGY GAP COMPUTED
 TTTTTTTTTTTTTTTTTTTTTTTTTTTTTT PDIG        TELAPSE      339.12 TCPU      334.43
 CHARGE NORMALIZATION FACTOR   1.00000000
 TOTAL ATOMIC CHARGES:
  18.2106894  18.1744585  18.2106895  18.2201055  18.2859045  18.2106891
  18.2859045  18.2106891   7.2973272   7.3245368   7.3245366   7.2973270
   7.3125161   7.3125164   7.3125161   7.3125164   7.3125162   7.3245354
   7.3125159   7.2973255   7.3125162   7.3245354   7.3125159   7.2973255
   0.1503670   0.1504557   0.1504557   0.1503672   0.1503670   0.1504557
   0.1504557   0.1503672
 SUMMED SPIN DENSITY           2.00000000
 TOTAL ATOMIC SPINS  :
   0.3885979   0.4371757   0.3885979  -0.2940396  -0.2559813   0.3885979
  -0.2559813   0.3885979   0.0339302   0.0989785   0.0989784   0.0339303
   0.0352736   0.0352736   0.0352736   0.0352736   0.0352737   0.0989784
   0.0352736   0.0339302   0.0352737   0.0989784   0.0352736   0.0339302
   0.0003404  -0.0001876  -0.0001876   0.0003404   0.0003404  -0.0001876
  -0.0001876   0.0003404
 TTTTTTTTTTTTTTTTTTTTTTTTTTTTTT MOQGAD      TELAPSE      339.17 TCPU      334.48
 TTTTTTTTTTTTTTTTTTTTTTTTTTTTTT SHELLXN     TELAPSE      619.64 TCPU      613.91
 TTTTTTTTTTTTTTTTTTTTTTTTTTTTTT MONMO3      TELAPSE      659.29 TCPU      653.49
 NUMERICALLY INTEGRATED DENSITY    133.0000954569    131.0000932740
 TTTTTTTTTTTTTTTTTTTTTTTTTTTTTT NUMDFT      TELAPSE      664.62 TCPU      658.83
 CYC   1 ETOT(AU) -1.842293655908E+03 DETOT -9.45E-01 tst  0.00E+00 PX  1.00E+00
 CYCLE  1 WAVE FUNCTION SAVED IN FORTRAN UNIT 79
 TTTTTTTTTTTTTTTTTTTTTTTTTTTTTT DIIS        TELAPSE      667.06 TCPU      661.23
 DIIS TEST: 0.42854E+00 AT SCF   CYCLE   1 - MIX   90 %
 TTTTTTTTTTTTTTTTTTTTTTTTTTTTTT FDIK        TELAPSE      672.75 TCPU      666.92
 SPIN LOCKING: NO ENERGY GAP COMPUTED
 TTTTTTTTTTTTTTTTTTTTTTTTTTTTTT PDIG        TELAPSE      674.11 TCPU      668.28
 CHARGE NORMALIZATION FACTOR   1.00000000
 TOTAL ATOMIC CHARGES:
  18.1767091  18.1470750  18.1767091  18.1838137  18.2218925  18.1767125
  18.2218925  18.1767125   7.3192687   7.3456923   7.3456922   7.3192684
   7.3301461   7.3301464   7.3301461   7.3301464   7.3301461   7.3457020
   7.3301459   7.3192709   7.3301461   7.3457020   7.3301459   7.3192709
   0.1521133   0.1522483   0.1522483   0.1521134   0.1521133   0.1522483
   0.1522483   0.1521134
 SUMMED SPIN DENSITY           2.00000000
 TOTAL ATOMIC SPINS  :
   0.4162137   0.4786760   0.4162135  -0.3256630  -0.2958062   0.4162026
  -0.2958062   0.4162026   0.0268334   0.1053351   0.1053353   0.0268337
   0.0305884   0.0305882   0.0305884   0.0305882   0.0305882   0.1053281
   0.0305882   0.0268299   0.0305882   0.1053281   0.0305882   0.0268299
   0.0003333  -0.0002314  -0.0002314   0.0003333   0.0003333  -0.0002314
  -0.0002314   0.0003333
 TTTTTTTTTTTTTTTTTTTTTTTTTTTTTT MOQGAD      TELAPSE      674.16 TCPU      668.32
 TTTTTTTTTTTTTTTTTTTTTTTTTTTTTT SHELLXN     TELAPSE      953.87 TCPU      947.63
 TTTTTTTTTTTTTTTTTTTTTTTTTTTTTT MONMO3      TELAPSE      993.21 TCPU      986.98
 NUMERICALLY INTEGRATED DENSITY    133.0000924392    131.0000904759
 TTTTTTTTTTTTTTTTTTTTTTTTTTTTTT NUMDFT      TELAPSE      998.45 TCPU      992.22
 CYC   2 ETOT(AU) -1.842335285811E+03 DETOT -4.16E-02 tst  4.73E-04 PX  5.18E-02
 CYCLE  2 WAVE FUNCTION SAVED IN FORTRAN UNIT 79
 TTTTTTTTTTTTTTTTTTTTTTTTTTTTTT DIIS        TELAPSE     1000.90 TCPU      994.64
 DIIS TEST: 0.25071E+00 AT SCF   CYCLE   2 - DIIS ACTIVE - HISTORY:     2 CYCLES
 TTTTTTTTTTTTTTTTTTTTTTTTTTTTTT FDIK        TELAPSE     1006.77 TCPU     1000.50
 SPIN LOCKING: NO ENERGY GAP COMPUTED
 TTTTTTTTTTTTTTTTTTTTTTTTTTTTTT PDIG        TELAPSE     1008.14 TCPU     1001.88
 CHARGE NORMALIZATION FACTOR   1.00000000
 TOTAL ATOMIC CHARGES:
  18.0159337  17.9979407  18.0159325  18.0373198  18.0602212  18.0155606
  18.0602212  18.0155606   7.4008427   7.4060613   7.4060622   7.4008422
   7.3995357   7.3995364   7.3995357   7.3995364   7.3994369   7.4062637
   7.3994376   7.4006226   7.3994369   7.4062637   7.3994376   7.4006226
   0.1699570   0.1695018   0.1695018   0.1699571   0.1699570   0.1695018
   0.1695018   0.1699571
 SUMMED SPIN DENSITY           2.00000000
 TOTAL ATOMIC SPINS  :
   0.5206927   0.6197496   0.5206912  -0.4589198  -0.4256277   0.5208669
  -0.4256277   0.5208669   0.0056499   0.1275987   0.1276007   0.0056520
   0.0100016   0.0099995   0.0100016   0.0099995   0.0099326   0.1274106
   0.0099332   0.0055657   0.0099326   0.1274106   0.0099332   0.0055657
  -0.0001373  -0.0010827  -0.0010826  -0.0001372  -0.0001373  -0.0010827
  -0.0010826  -0.0001372
 TTTTTTTTTTTTTTTTTTTTTTTTTTTTTT MOQGAD      TELAPSE     1008.19 TCPU     1001.92
 TTTTTTTTTTTTTTTTTTTTTTTTTTTTTT SHELLXN     TELAPSE     1289.23 TCPU     1281.00
 TTTTTTTTTTTTTTTTTTTTTTTTTTTTTT MONMO3      TELAPSE     1325.58 TCPU     1317.10
 NUMERICALLY INTEGRATED DENSITY    133.0000648402    131.0000612882
 TTTTTTTTTTTTTTTTTTTTTTTTTTTTTT NUMDFT      TELAPSE     1330.81 TCPU     1322.34
 CYC   3 ETOT(AU) -1.842435693485E+03 DETOT -1.00E-01 tst  9.52E-03 PX  2.16E-01
 CYCLE  3 WAVE FUNCTION SAVED IN FORTRAN UNIT 79
 TTTTTTTTTTTTTTTTTTTTTTTTTTTTTT DIIS        TELAPSE     1333.56 TCPU     1325.04
 DIIS TEST: 0.72004E-01 AT SCF   CYCLE   3 - DIIS ACTIVE - HISTORY:     3 CYCLES
 TTTTTTTTTTTTTTTTTTTTTTTTTTTTTT FDIK        TELAPSE     1341.02 TCPU     1332.50
 SPIN LOCKING: NO ENERGY GAP COMPUTED
 TTTTTTTTTTTTTTTTTTTTTTTTTTTTTT PDIG        TELAPSE     1342.39 TCPU     1333.86
 CHARGE NORMALIZATION FACTOR   1.00000000
 TOTAL ATOMIC CHARGES:
  18.0241289  17.9927904  18.0241292  18.0023270  17.9714496  18.0242020
  17.9714496  18.0242020   7.4009370   7.4384344   7.4384339   7.4009369
   7.4139019   7.4139021   7.4139019   7.4139021   7.4138815   7.4384654
   7.4138815   7.4009464   7.4138815   7.4384654   7.4138815   7.4009464
   0.1622352   0.1619201   0.1619201   0.1622353   0.1622352   0.1619201
   0.1619201   0.1622353
 SUMMED SPIN DENSITY           2.00000000
 TOTAL ATOMIC SPINS  :
   0.5568393   0.6652323   0.5568393  -0.5112473  -0.5162629   0.5567968
  -0.5162629   0.5567968   0.0114041   0.1260249   0.1260246   0.0114040
   0.0133039   0.0133050   0.0133039   0.0133050   0.0132881   0.1260287
   0.0132890   0.0113954   0.0132881   0.1260287   0.0132890   0.0113954
  -0.0000851  -0.0011172  -0.0011172  -0.0000851  -0.0000851  -0.0011172
  -0.0011172  -0.0000851
 TTTTTTTTTTTTTTTTTTTTTTTTTTTTTT MOQGAD      TELAPSE     1342.43 TCPU     1333.91
 TTTTTTTTTTTTTTTTTTTTTTTTTTTTTT SHELLXN     TELAPSE     1623.50 TCPU     1613.38
 TTTTTTTTTTTTTTTTTTTTTTTTTTTTTT MONMO3      TELAPSE     1661.08 TCPU     1650.82
 NUMERICALLY INTEGRATED DENSITY    133.0000695886    131.0000656222
 TTTTTTTTTTTTTTTTTTTTTTTTTTTTTT NUMDFT      TELAPSE     1666.31 TCPU     1656.05
 CYC   4 ETOT(AU) -1.842445872786E+03 DETOT -1.02E-02 tst  2.25E-03 PX  1.09E-01
 CYCLE  4 WAVE FUNCTION SAVED IN FORTRAN UNIT 79
 TTTTTTTTTTTTTTTTTTTTTTTTTTTTTT DIIS        TELAPSE     1668.91 TCPU     1658.61
 DIIS TEST: 0.11639E+00 AT SCF   CYCLE   4 - DIIS ACTIVE - HISTORY:     4 CYCLES
 TTTTTTTTTTTTTTTTTTTTTTTTTTTTTT FDIK        TELAPSE     1675.44 TCPU     1665.09
 SPIN LOCKING: NO ENERGY GAP COMPUTED
 TTTTTTTTTTTTTTTTTTTTTTTTTTTTTT PDIG        TELAPSE     1676.97 TCPU     1666.39
 CHARGE NORMALIZATION FACTOR   1.00000000
 TOTAL ATOMIC CHARGES:
  17.9875426  17.9862568  17.9875396  18.0189597  18.0372285  17.9875392
  18.0372285  17.9875392   7.4146768   7.4255068   7.4255061   7.4146785
   7.4114016   7.4114012   7.4114016   7.4114012   7.4113902   7.4255038
   7.4113908   7.4146810   7.4113902   7.4255038   7.4113908   7.4146810
   0.1649066   0.1646584   0.1646584   0.1649068   0.1649066   0.1646584
   0.1646584   0.1649068
 SUMMED SPIN DENSITY           2.00000000
 TOTAL ATOMIC SPINS  :
   0.5925888   0.6823440   0.5925897  -0.5389339  -0.5171294   0.5925703
  -0.5171294   0.5925703   0.0025040   0.1235799   0.1235790   0.0025047
   0.0027273   0.0027277   0.0027273   0.0027277   0.0027075   0.1236201
   0.0027083   0.0025086   0.0027075   0.1236201   0.0027083   0.0025086
  -0.0001670  -0.0012423  -0.0012423  -0.0001671  -0.0001670  -0.0012423
  -0.0012423  -0.0001671
 TTTTTTTTTTTTTTTTTTTTTTTTTTTTTT MOQGAD      TELAPSE     1677.06 TCPU     1666.47
 TTTTTTTTTTTTTTTTTTTTTTTTTTTTTT SHELLXN     TELAPSE     1956.91 TCPU     1945.84
 TTTTTTTTTTTTTTTTTTTTTTTTTTTTTT MONMO3      TELAPSE     1995.55 TCPU     1984.33
 NUMERICALLY INTEGRATED DENSITY    133.0000683403    131.0000635959
 TTTTTTTTTTTTTTTTTTTTTTTTTTTTTT NUMDFT      TELAPSE     2000.79 TCPU     1989.56
 CYC   5 ETOT(AU) -1.842457419111E+03 DETOT -1.15E-02 tst  4.71E-04 PX  4.15E-02
 CYCLE  5 WAVE FUNCTION SAVED IN FORTRAN UNIT 79
 TTTTTTTTTTTTTTTTTTTTTTTTTTTTTT DIIS        TELAPSE     2003.64 TCPU     1992.37
 DIIS TEST: 0.47666E-01 AT SCF   CYCLE   5 - DIIS ACTIVE - HISTORY:     5 CYCLES
 TTTTTTTTTTTTTTTTTTTTTTTTTTTTTT FDIK        TELAPSE     2011.80 TCPU     2000.26
 SPIN LOCKING: NO ENERGY GAP COMPUTED
 TTTTTTTTTTTTTTTTTTTTTTTTTTTTTT PDIG        TELAPSE     2013.17 TCPU     2001.63
 CHARGE NORMALIZATION FACTOR   1.00000000
 TOTAL ATOMIC CHARGES:
[...]
 DIIS TEST: 0.12741E-02 AT SCF   CYCLE   8 - DIIS ACTIVE - HISTORY:     8 CYCLES
 TTTTTTTTTTTTTTTTTTTTTTTTTTTTTT FDIK        TELAPSE     3020.38 TCPU     3001.04
 SPIN LOCKING: NO ENERGY GAP COMPUTED
 TTTTTTTTTTTTTTTTTTTTTTTTTTTTTT PDIG        TELAPSE     3022.17 TCPU     3002.83
 CHARGE NORMALIZATION FACTOR   1.00000000
 TOTAL ATOMIC CHARGES:
  18.0052059  17.9896580  18.0052055  18.0157457  18.0155954  18.0051899
  18.0155954  18.0051899   7.4084268   7.4225406   7.4225409   7.4084269
   7.4115397   7.4115398   7.4115397   7.4115398   7.4115333   7.4225440
   7.4115329   7.4084377   7.4115333   7.4225440   7.4115329   7.4084377
   0.1659334   0.1656726   0.1656726   0.1659335   0.1659334   0.1656726
   0.1656726   0.1659335
 SUMMED SPIN DENSITY           2.00000000
 TOTAL ATOMIC SPINS  :
   0.6174253   0.7041970   0.6174263  -0.5768957  -0.5712769   0.6174376
  -0.5712769   0.6174376   0.0045383   0.1235988   0.1235974   0.0045374
   0.0047691   0.0047699   0.0047691   0.0047699   0.0047667   0.1235862
   0.0047670   0.0045397   0.0047667   0.1235862   0.0047670   0.0045397
  -0.0000215  -0.0012644  -0.0012643  -0.0000215  -0.0000215  -0.0012644
  -0.0012643  -0.0000215
 TTTTTTTTTTTTTTTTTTTTTTTTTTTTTT MOQGAD      TELAPSE     3022.21 TCPU     3002.87
 TTTTTTTTTTTTTTTTTTTTTTTTTTTTTT SHELLXN     TELAPSE     3303.97 TCPU     3281.97
 TTTTTTTTTTTTTTTTTTTTTTTTTTTTTT MONMO3      TELAPSE     3340.13 TCPU     3318.15
 NUMERICALLY INTEGRATED DENSITY    133.0000691267    131.0000643458
 TTTTTTTTTTTTTTTTTTTTTTTTTTTTTT NUMDFT      TELAPSE     3345.36 TCPU     3323.38
 CYC   9 ETOT(AU) -1.842464379101E+03 DETOT -1.02E-04 tst  4.09E-06 PX  5.48E-03
 CYCLE  9 WAVE FUNCTION SAVED IN FORTRAN UNIT 79
 TTTTTTTTTTTTTTTTTTTTTTTTTTTTTT DIIS        TELAPSE     3347.93 TCPU     3325.92
 DIIS TEST: 0.43247E-03 AT SCF   CYCLE   9 - DIIS ACTIVE - HISTORY:     9 CYCLES
 TTTTTTTTTTTTTTTTTTTTTTTTTTTTTT FDIK        TELAPSE     3354.90 TCPU     3332.56
 SPIN LOCKING: NO ENERGY GAP COMPUTED
 TTTTTTTTTTTTTTTTTTTTTTTTTTTTTT PDIG        TELAPSE     3356.56 TCPU     3333.88
 CHARGE NORMALIZATION FACTOR   1.00000000
 TOTAL ATOMIC CHARGES:
  18.0058115  17.9867342  18.0058123  18.0095638  18.0173323  18.0058147
  18.0173323  18.0058147   7.4083880   7.4239872   7.4239869   7.4083880
   7.4112166   7.4112171   7.4112166   7.4112171   7.4112219   7.4239854
   7.4112212   7.4083863   7.4112219   7.4239854   7.4112212   7.4083863
   0.1659634   0.1656708   0.1656709   0.1659635   0.1659634   0.1656708
   0.1656709   0.1659635
 SUMMED SPIN DENSITY           2.00000000
 TOTAL ATOMIC SPINS  :
   0.6173971   0.7055218   0.6173977  -0.5794869  -0.5705348   0.6174016
  -0.5705348   0.6174016   0.0053525   0.1230523   0.1230517   0.0053526
   0.0046077   0.0046082   0.0046077   0.0046082   0.0046087   0.1230474
   0.0046083   0.0053557   0.0046087   0.1230474   0.0046083   0.0053557
  -0.0000092  -0.0012520  -0.0012520  -0.0000092  -0.0000092  -0.0012520
  -0.0012520  -0.0000092
 TTTTTTTTTTTTTTTTTTTTTTTTTTTTTT MOQGAD      TELAPSE     3356.62 TCPU     3333.93
 TTTTTTTTTTTTTTTTTTTTTTTTTTTTTT SHELLXN     TELAPSE     3638.81 TCPU     3613.11
 TTTTTTTTTTTTTTTTTTTTTTTTTTTTTT MONMO3      TELAPSE     3676.10 TCPU     3650.13
 NUMERICALLY INTEGRATED DENSITY    133.0000691236    131.0000643490
 TTTTTTTTTTTTTTTTTTTTTTTTTTTTTT NUMDFT      TELAPSE     3681.32 TCPU     3655.36
 CYC  10 ETOT(AU) -1.842464414929E+03 DETOT -3.58E-05 tst  1.06E-06 PX  3.70E-03
 CYCLE 10 WAVE FUNCTION SAVED IN FORTRAN UNIT 79
 TTTTTTTTTTTTTTTTTTTTTTTTTTTTTT DIIS        TELAPSE     3683.76 TCPU     3657.71
 DIIS TEST: 0.66483E-04 AT SCF   CYCLE  10 - DIIS ACTIVE - HISTORY:    10 CYCLES
 TTTTTTTTTTTTTTTTTTTTTTTTTTTTTT FDIK        TELAPSE     3691.00 TCPU     3664.52
 SPIN LOCKING: NO ENERGY GAP COMPUTED
 TTTTTTTTTTTTTTTTTTTTTTTTTTTTTT PDIG        TELAPSE     3692.37 TCPU     3665.89
 CHARGE NORMALIZATION FACTOR   1.00000000
 TOTAL ATOMIC CHARGES:
  18.0054976  17.9863603  18.0054984  18.0115498  18.0164579  18.0054958
  18.0164579  18.0054958   7.4087706   7.4236614   7.4236614   7.4087702
   7.4114188   7.4114189   7.4114188   7.4114189   7.4114198   7.4236625
   7.4114192   7.4087670   7.4114198   7.4236625   7.4114192   7.4087670
   0.1659119   0.1656156   0.1656156   0.1659120   0.1659119   0.1656156
   0.1656156   0.1659120
 SUMMED SPIN DENSITY           2.00000000
 TOTAL ATOMIC SPINS  :
   0.6176067   0.7055099   0.6176067  -0.5786993  -0.5708242   0.6176072
  -0.5708242   0.6176072   0.0049221   0.1231572   0.1231570   0.0049217
   0.0046333   0.0046335   0.0046333   0.0046335   0.0046337   0.1231545
   0.0046336   0.0049259   0.0046337   0.1231545   0.0046336   0.0049259
  -0.0000017  -0.0012426  -0.0012426  -0.0000017  -0.0000017  -0.0012426
  -0.0012426  -0.0000017
 TTTTTTTTTTTTTTTTTTTTTTTTTTTTTT MOQGAD      TELAPSE     3692.42 TCPU     3665.94
 TTTTTTTTTTTTTTTTTTTTTTTTTTTTTT SHELLXN     TELAPSE     3971.22 TCPU     3944.77
 TTTTTTTTTTTTTTTTTTTTTTTTTTTTTT MONMO3      TELAPSE     4011.95 TCPU     3985.50
 NUMERICALLY INTEGRATED DENSITY    133.0000691474    131.0000643939
 TTTTTTTTTTTTTTTTTTTTTTTTTTTTTT NUMDFT      TELAPSE     4017.62 TCPU     3991.11
 CYC  11 ETOT(AU) -1.842464421666E+03 DETOT -6.74E-06 tst  2.08E-07 PX  1.19E-03
 CYCLE 11 WAVE FUNCTION SAVED IN FORTRAN UNIT 79
 TTTTTTTTTTTTTTTTTTTTTTTTTTTTTT DIIS        TELAPSE     4020.43 TCPU     3993.87
 DIIS TEST: 0.13671E-04 AT SCF   CYCLE  11 - DIIS ACTIVE - HISTORY:    11 CYCLES
 TTTTTTTTTTTTTTTTTTTTTTTTTTTTTT FDIK        TELAPSE     4027.79 TCPU     4001.04
 SPIN LOCKING: NO ENERGY GAP COMPUTED
 TTTTTTTTTTTTTTTTTTTTTTTTTTTTTT PDIG        TELAPSE     4029.16 TCPU     4002.41
 CHARGE NORMALIZATION FACTOR   1.00000000
 TOTAL ATOMIC CHARGES:
  18.0053729  17.9877387  18.0053726  18.0103451  18.0167080  18.0053691
  18.0167080  18.0053691   7.4088266   7.4234783   7.4234784   7.4088267
   7.4114624   7.4114626   7.4114624   7.4114626   7.4114613   7.4234782
   7.4114609   7.4088242   7.4114613   7.4234782   7.4114609   7.4088242
   0.1658980   0.1656287   0.1656287   0.1658981   0.1658980   0.1656287
   0.1656287   0.1658981
 SUMMED SPIN DENSITY           2.00000000
 TOTAL ATOMIC SPINS  :
   0.6177616   0.7049389   0.6177617  -0.5791807  -0.5708430   0.6177637
  -0.5708430   0.6177637   0.0050349   0.1232241   0.1232238   0.0050349
   0.0045995   0.0045998   0.0045995   0.0045998   0.0046001   0.1232224
   0.0046002   0.0050346   0.0046001   0.1232224   0.0046002   0.0050346
   0.0000016  -0.0012400  -0.0012400   0.0000016   0.0000016  -0.0012400
  -0.0012400   0.0000016
 TTTTTTTTTTTTTTTTTTTTTTTTTTTTTT MOQGAD      TELAPSE     4029.20 TCPU     4002.45
 TTTTTTTTTTTTTTTTTTTTTTTTTTTTTT SHELLXN     TELAPSE     4310.47 TCPU     4281.84
 TTTTTTTTTTTTTTTTTTTTTTTTTTTTTT MONMO3      TELAPSE     4347.25 TCPU     4318.64
 NUMERICALLY INTEGRATED DENSITY    133.0000691435    131.0000643989
 TTTTTTTTTTTTTTTTTTTTTTTTTTTTTT NUMDFT      TELAPSE     4352.82 TCPU     4324.21
 CYC  12 ETOT(AU) -1.842464421612E+03 DETOT  5.38E-08 tst  6.53E-08 PX  7.45E-04
 CYCLE 12 WAVE FUNCTION SAVED IN FORTRAN UNIT 79
 TTTTTTTTTTTTTTTTTTTTTTTTTTTTTT DIIS        TELAPSE     4355.32 TCPU     4326.63
 DIIS TEST: 0.10398E-04 AT SCF   CYCLE  12 - DIIS ACTIVE - HISTORY:    12 CYCLES
 TTTTTTTTTTTTTTTTTTTTTTTTTTTTTT FDIK        TELAPSE     4361.68 TCPU     4332.76
 SPIN LOCKING: NO ENERGY GAP COMPUTED
 TTTTTTTTTTTTTTTTTTTTTTTTTTTTTT PDIG        TELAPSE     4363.92 TCPU     4334.65
 CHARGE NORMALIZATION FACTOR   1.00000000
 TOTAL ATOMIC CHARGES:
  18.0054844  17.9864195  18.0054844  18.0110272  18.0167052  18.0054845
  18.0167052  18.0054845   7.4087202   7.4236896   7.4236896   7.4087202
   7.4114298   7.4114299   7.4114298   7.4114299   7.4114289   7.4236883
   7.4114284   7.4087182   7.4114289   7.4236883   7.4114284   7.4087182
   0.1659057   0.1656290   0.1656290   0.1659058   0.1659057   0.1656290
   0.1656290   0.1659058
 SUMMED SPIN DENSITY           2.00000000
 TOTAL ATOMIC SPINS  :
   0.6178176   0.7055350   0.6178177  -0.5789291  -0.5709511   0.6178179
  -0.5709511   0.6178179   0.0049252   0.1231240   0.1231238   0.0049250
   0.0045951   0.0045953   0.0045951   0.0045953   0.0045952   0.1231229
   0.0045953   0.0049251   0.0045952   0.1231229   0.0045953   0.0049251
   0.0000053  -0.0012379  -0.0012379   0.0000053   0.0000053  -0.0012379
  -0.0012379   0.0000053
 TTTTTTTTTTTTTTTTTTTTTTTTTTTTTT MOQGAD      TELAPSE     4364.04 TCPU     4334.76
 TTTTTTTTTTTTTTTTTTTTTTTTTTTTTT SHELLXN     TELAPSE     4645.60 TCPU     4614.08
 TTTTTTTTTTTTTTTTTTTTTTTTTTTTTT MONMO3      TELAPSE     4682.89 TCPU     4651.04
 NUMERICALLY INTEGRATED DENSITY    133.0000691413    131.0000643981
 TTTTTTTTTTTTTTTTTTTTTTTTTTTTTT NUMDFT      TELAPSE     4688.16 TCPU     4656.32
 CYC  13 ETOT(AU) -1.842464422278E+03 DETOT -6.66E-07 tst  5.17E-08 PX  7.25E-04
 CYCLE 13 WAVE FUNCTION SAVED IN FORTRAN UNIT 79
 TTTTTTTTTTTTTTTTTTTTTTTTTTTTTT DIIS        TELAPSE     4690.83 TCPU     4658.95
 DIIS TEST: 0.30785E-05 AT SCF   CYCLE  13 - DIIS ACTIVE - HISTORY:    13 CYCLES
 TTTTTTTTTTTTTTTTTTTTTTTTTTTTTT FDIK        TELAPSE     4697.36 TCPU     4665.33
 SPIN LOCKING: NO ENERGY GAP COMPUTED
 TTTTTTTTTTTTTTTTTTTTTTTTTTTTTT PDIG        TELAPSE     4698.75 TCPU     4666.71
 CHARGE NORMALIZATION FACTOR   1.00000000
 TOTAL ATOMIC CHARGES:
  18.0054542  17.9868990  18.0054550  18.0109390  18.0166281  18.0054562
  18.0166281  18.0054562   7.4087768   7.4236358   7.4236357   7.4087765
   7.4114153   7.4114155   7.4114153   7.4114155   7.4114157   7.4236345
   7.4114151   7.4087747   7.4114157   7.4236345   7.4114151   7.4087747
   0.1659072   0.1656222   0.1656222   0.1659073   0.1659072   0.1656222
   0.1656222   0.1659073
 SUMMED SPIN DENSITY           2.00000000
 TOTAL ATOMIC SPINS  :
   0.6178433   0.7053536   0.6178430  -0.5789989  -0.5709468   0.6178426
  -0.5709468   0.6178426   0.0049307   0.1231536   0.1231536   0.0049307
   0.0045943   0.0045945   0.0045943   0.0045945   0.0045943   0.1231533
   0.0045944   0.0049305   0.0045943   0.1231533   0.0045944   0.0049305
   0.0000061  -0.0012371  -0.0012371   0.0000061   0.0000061  -0.0012371
  -0.0012371   0.0000061
 TTTTTTTTTTTTTTTTTTTTTTTTTTTTTT MOQGAD      TELAPSE     4698.79 TCPU     4666.76
 TTTTTTTTTTTTTTTTTTTTTTTTTTTTTT SHELLXN     TELAPSE     4979.58 TCPU     4946.05
 TTTTTTTTTTTTTTTTTTTTTTTTTTTTTT MONMO3      TELAPSE     5019.07 TCPU     4985.49
 NUMERICALLY INTEGRATED DENSITY    133.0000691407    131.0000644003
 TTTTTTTTTTTTTTTTTTTTTTTTTTTTTT NUMDFT      TELAPSE     5024.31 TCPU     4990.72
 CYC  14 ETOT(AU) -1.842464422583E+03 DETOT -3.05E-07 tst  6.45E-09 PX  2.48E-04
 CYCLE 14 WAVE FUNCTION SAVED IN FORTRAN UNIT 79
 TTTTTTTTTTTTTTTTTTTTTTTTTTTTTT DIIS        TELAPSE     5026.78 TCPU     4993.11
 DIIS TEST: 0.16131E-06 AT SCF   CYCLE  14 - DIIS ACTIVE - HISTORY:    14 CYCLES
 TTTTTTTTTTTTTTTTTTTTTTTTTTTTTT FDIK        TELAPSE     5033.74 TCPU     4999.90
 SPIN LOCKING: NO ENERGY GAP COMPUTED
 TTTTTTTTTTTTTTTTTTTTTTTTTTTTTT PDIG        TELAPSE     5035.94 TCPU     5002.09
 CHARGE NORMALIZATION FACTOR   1.00000000
 TOTAL ATOMIC CHARGES:
  18.0054469  17.9868793  18.0054467  18.0108549  18.0166435  18.0054439
  18.0166435  18.0054439   7.4087484   7.4236141   7.4236140   7.4087482
   7.4114556   7.4114560   7.4114556   7.4114560   7.4114550   7.4236124
   7.4114546   7.4087463   7.4114550   7.4236124   7.4114546   7.4087463
   0.1659031   0.1656250   0.1656250   0.1659032   0.1659031   0.1656250
   0.1656250   0.1659032
 SUMMED SPIN DENSITY           2.00000000
 TOTAL ATOMIC SPINS  :
   0.6178452   0.7053512   0.6178455  -0.5789895  -0.5709374   0.6178467
  -0.5709374   0.6178467   0.0049342   0.1231513   0.1231513   0.0049342
   0.0045882   0.0045883   0.0045882   0.0045883   0.0045886   0.1231514
   0.0045885   0.0049336   0.0045886   0.1231514   0.0045885   0.0049336
   0.0000068  -0.0012366  -0.0012366   0.0000068   0.0000068  -0.0012366
  -0.0012366   0.0000068
 TTTTTTTTTTTTTTTTTTTTTTTTTTTTTT MOQGAD      TELAPSE     5036.07 TCPU     5002.23
 TTTTTTTTTTTTTTTTTTTTTTTTTTTTTT SHELLXN     TELAPSE     5317.71 TCPU     5281.52
 TTTTTTTTTTTTTTTTTTTTTTTTTTTTTT MONMO3      TELAPSE     5355.42 TCPU     5318.99
 NUMERICALLY INTEGRATED DENSITY    133.0000691395    131.0000644004
 TTTTTTTTTTTTTTTTTTTTTTTTTTTTTT NUMDFT      TELAPSE     5360.64 TCPU     5324.22
 CYC  15 ETOT(AU) -1.842464422587E+03 DETOT -3.79E-09 tst  3.99E-10 PX  3.84E-05
 CYCLE 15 WAVE FUNCTION SAVED IN FORTRAN UNIT 79
 TTTTTTTTTTTTTTTTTTTTTTTTTTTTTT DIIS        TELAPSE     5363.23 TCPU     5326.72
 DIIS TEST: 0.90775E-07 AT SCF   CYCLE  15 - DIIS ACTIVE - HISTORY:    15 CYCLES
 TTTTTTTTTTTTTTTTTTTTTTTTTTTTTT FDIK        TELAPSE     5369.84 TCPU     5332.99
 SPIN LOCKING: NO ENERGY GAP COMPUTED
 TTTTTTTTTTTTTTTTTTTTTTTTTTTTTT PDIG        TELAPSE     5371.21 TCPU     5334.36
 CHARGE NORMALIZATION FACTOR   1.00000000
 TOTAL ATOMIC CHARGES:
  18.0054467  17.9868867  18.0054467  18.0108557  18.0166551  18.0054480
  18.0166551  18.0054480   7.4087716   7.4236304   7.4236303   7.4087713
   7.4114308   7.4114312   7.4114308   7.4114312   7.4114309   7.4236283
   7.4114306   7.4087688   7.4114309   7.4236283   7.4114306   7.4087688
   0.1659032   0.1656250   0.1656251   0.1659033   0.1659032   0.1656250
   0.1656251   0.1659033
 SUMMED SPIN DENSITY           2.00000000
 TOTAL ATOMIC SPINS  :
   0.6178471   0.7053519   0.6178472  -0.5789823  -0.5709291   0.6178464
  -0.5709291   0.6178464   0.0049268   0.1231509   0.1231508   0.0049269
   0.0045882   0.0045883   0.0045882   0.0045883   0.0045883   0.1231510
   0.0045882   0.0049269   0.0045883   0.1231510   0.0045882   0.0049269
   0.0000073  -0.0012363  -0.0012363   0.0000073   0.0000073  -0.0012363
  -0.0012363   0.0000073
 TTTTTTTTTTTTTTTTTTTTTTTTTTTTTT MOQGAD      TELAPSE     5371.26 TCPU     5334.40
 TTTTTTTTTTTTTTTTTTTTTTTTTTTTTT SHELLXN     TELAPSE     5652.36 TCPU     5613.38
 TTTTTTTTTTTTTTTTTTTTTTTTTTTTTT MONMO3      TELAPSE     5691.93 TCPU     5652.55
 NUMERICALLY INTEGRATED DENSITY    133.0000691390    131.0000644005
 TTTTTTTTTTTTTTTTTTTTTTTTTTTTTT NUMDFT      TELAPSE     5697.85 TCPU     5657.75
 CYC  16 ETOT(AU) -1.842464422603E+03 DETOT -1.64E-08 tst  1.09E-10 PX  2.54E-05
 CYCLE 16 WAVE FUNCTION SAVED IN FORTRAN UNIT 79
 TTTTTTTTTTTTTTTTTTTTTTTTTTTTTT DIIS        TELAPSE     5700.57 TCPU     5660.40
 DIIS TEST: 0.12926E-07 AT SCF   CYCLE  16 - DIIS ACTIVE - HISTORY:    16 CYCLES
 TTTTTTTTTTTTTTTTTTTTTTTTTTTTTT FDIK        TELAPSE     5708.66 TCPU     5668.26
 SPIN LOCKING: NO ENERGY GAP COMPUTED
 TTTTTTTTTTTTTTTTTTTTTTTTTTTTTT PDIG        TELAPSE     5711.93 TCPU     5670.92
 CHARGE NORMALIZATION FACTOR   1.00000000
 TOTAL ATOMIC CHARGES:
  18.0054483  17.9868802  18.0054486  18.0108767  18.0166412  18.0054474
  18.0166412  18.0054474   7.4087641   7.4236273   7.4236271   7.4087639
   7.4114375   7.4114379   7.4114375   7.4114379   7.4114376   7.4236256
   7.4114372   7.4087620   7.4114376   7.4236256   7.4114372   7.4087620
   0.1659040   0.1656237   0.1656237   0.1659041   0.1659040   0.1656237
   0.1656237   0.1659041
 SUMMED SPIN DENSITY           2.00000000
 TOTAL ATOMIC SPINS  :
   0.6178491   0.7053551   0.6178490  -0.5789729  -0.5709293   0.6178494
  -0.5709293   0.6178494   0.0049235   0.1231506   0.1231505   0.0049236
   0.0045871   0.0045871   0.0045871   0.0045871   0.0045873   0.1231506
   0.0045873   0.0049234   0.0045873   0.1231506   0.0045873   0.0049234
   0.0000076  -0.0012361  -0.0012361   0.0000076   0.0000076  -0.0012361
  -0.0012361   0.0000076
 TTTTTTTTTTTTTTTTTTTTTTTTTTTTTT MOQGAD      TELAPSE     5712.07 TCPU     5671.06
 TTTTTTTTTTTTTTTTTTTTTTTTTTTTTT SHELLXN     TELAPSE     5992.79 TCPU     5950.36
 TTTTTTTTTTTTTTTTTTTTTTTTTTTTTT MONMO3      TELAPSE     6032.59 TCPU     5989.41
 NUMERICALLY INTEGRATED DENSITY    133.0000691386    131.0000644008
 TTTTTTTTTTTTTTTTTTTTTTTTTTTTTT NUMDFT      TELAPSE     6037.87 TCPU     5994.69
 CYC  17 ETOT(AU) -1.842464422603E+03 DETOT -7.16E-11 tst  1.01E-10 PX  1.95E-05
 CYCLE 17 WAVE FUNCTION SAVED IN FORTRAN UNIT 79
 TTTTTTTTTTTTTTTTTTTTTTTTTTTTTT DIIS        TELAPSE     6040.52 TCPU     5997.24
 DIIS TEST: 0.14495E-08 AT SCF   CYCLE  17 - DIIS ACTIVE - HISTORY:    17 CYCLES
 TTTTTTTTTTTTTTTTTTTTTTTTTTTTTT FDIK        TELAPSE     6047.94 TCPU     6004.20
 SPIN LOCKING: NO ENERGY GAP COMPUTED
 TTTTTTTTTTTTTTTTTTTTTTTTTTTTTT PDIG        TELAPSE     6050.67 TCPU     6006.93
 CHARGE NORMALIZATION FACTOR   1.00000000
 TOTAL ATOMIC CHARGES:
  18.0054471  17.9868854  18.0054467  18.0108703  18.0166425  18.0054491
  18.0166425  18.0054491   7.4087653   7.4236275   7.4236273   7.4087652
   7.4114369   7.4114373   7.4114369   7.4114373   7.4114371   7.4236250
   7.4114368   7.4087625   7.4114371   7.4236250   7.4114368   7.4087625
   0.1659034   0.1656243   0.1656243   0.1659035   0.1659034   0.1656243
   0.1656243   0.1659035
 SUMMED SPIN DENSITY           2.00000000
 TOTAL ATOMIC SPINS  :
   0.6178510   0.7053558   0.6178512  -0.5789699  -0.5709270   0.6178500
  -0.5709270   0.6178500   0.0049220   0.1231502   0.1231501   0.0049220
   0.0045861   0.0045862   0.0045861   0.0045862   0.0045861   0.1231504
   0.0045860   0.0049221   0.0045861   0.1231504   0.0045860   0.0049221
   0.0000079  -0.0012359  -0.0012359   0.0000079   0.0000079  -0.0012359
  -0.0012359   0.0000079
 TTTTTTTTTTTTTTTTTTTTTTTTTTTTTT MOQGAD      TELAPSE     6050.71 TCPU     6006.97
 TTTTTTTTTTTTTTTTTTTTTTTTTTTTTT SHELLXN     TELAPSE     6330.27 TCPU     6286.14
 +++ ENERGIES IN A.U. +++
 ::: EXT EL-POLE                                  -9.3491729086710E+03
 ::: EXT EL-SPHEROPOLE                             4.5353793271368E+01
 ::: BIELET ZONE E-E                               1.0185082276931E+04
 ::: TOTAL E-E                                     8.8126316153161E+02
 ::: TOTAL E-N + N-E                              -2.9272819366662E+03
 ::: TOTAL N-N                                    -8.2862678999312E+02
 ::: KINETIC ENERGY                                1.1952321695370E+03
 ::: PSEUDO TOTAL   ENERGY                        -1.6794133955907E+03
 ::: VIRIAL COEFFICIENT                            8.3156837422765E-01
 TTTTTTTTTTTTTTTTTTTTTTTTTTTTTT MONMO3      TELAPSE     6369.86 TCPU     6325.44
 NUMERICALLY INTEGRATED DENSITY    133.0000691383    131.0000644009
 TTTTTTTTTTTTTTTTTTTTTTTTTTTTTT NUMDFT      TELAPSE     6375.09 TCPU     6330.66
 CYC  18 ETOT(AU) -1.842464422605E+03 DETOT -1.17E-09 tst  8.86E-11 PX  1.95E-05

 == SCF ENDED - CONVERGENCE ON ENERGY      E(AU) -1.8424644226046E+03 CYCLES  18


 ENERGY EXPRESSION=HARTREE+FOCK EXCH*0.25000+(PBE        EXCH)*0.75000+PBE        CORR

 FINITE TEMPERATURE DFT CALCULATION 
 TEMPERATURE      (T)    1.000000000000E-13 HARTREE 
 ENERGY           (E)   -1.842464422605E+03
 FREE ENERGY      (F)   -1.842464422605E+03
 ELECTRON ENTROPY (S)    0.000000000000E+00
 (E(T)+F(T))/2    (E0)  -1.842464422605E+03


 TOTAL ENERGY(DFT)(AU)( 18) -1.8424644226046E+03 DE-1.2E-09 tester 8.9E-11
 TTTTTTTTTTTTTTTTTTTTTTTTTTTTTT EDFT        TELAPSE     6375.11 TCPU     6330.67
 EIGENVECTORS IN FORTRAN UNIT  8
 TTTTTTTTTTTTTTTTTTTTTTTTTTTTTT END         TELAPSE     6378.29 TCPU     6333.85
 EEEEEEEEEE TERMINATION  DATE 24 03 2018 TIME 22:38:00.8
NODE    0 CPU TIME =      6333.848
NODE    1 CPU TIME =      6339.172
NODE    2 CPU TIME =      6343.938
NODE    3 CPU TIME =      6335.455
NODE    4 CPU TIME =      6327.431
NODE    5 CPU TIME =      6325.417
NODE    6 CPU TIME =      6332.848
NODE    7 CPU TIME =      6343.097
NODE    8 CPU TIME =      6335.575
NODE    9 CPU TIME =      6333.243
NODE   10 CPU TIME =      6329.864
NODE   11 CPU TIME =      6322.526
NODE   12 CPU TIME =      6333.745
NODE   13 CPU TIME =      6328.120
NODE   14 CPU TIME =      6338.517
NODE   15 CPU TIME =      6341.162
NODE   16 CPU TIME =      6332.203
NODE   17 CPU TIME =      6335.430
NODE   18 CPU TIME =      6332.065
NODE   19 CPU TIME =      6329.598
    TOTAL CPU TIME =    126673.255
