--------------------------------------------------------------------------
[[7276,1],19]: A high-performance Open MPI point-to-point messaging module
was unable to find any relevant network interfaces:

Module: OpenFabrics (openib)
  Host: golub229

Another transport will be used instead, although this may result in
lower performance.
--------------------------------------------------------------------------
 PROCESS           18  OF           24  WORKING
 PROCESS           19  OF           24  WORKING
 PROCESS            5  OF           24  WORKING
 PROCESS           17  OF           24  WORKING
 PROCESS           11  OF           24  WORKING
 PROCESS           22  OF           24  WORKING
 PROCESS            4  OF           24  WORKING
 PROCESS           23  OF           24  WORKING
 PROCESS           16  OF           24  WORKING
 PROCESS           12  OF           24  WORKING
 PROCESS            9  OF           24  WORKING
 PROCESS           10  OF           24  WORKING
 PROCESS           15  OF           24  WORKING
 PROCESS           20  OF           24  WORKING
 PROCESS            8  OF           24  WORKING
 PROCESS           13  OF           24  WORKING
 PROCESS            3  OF           24  WORKING
 PROCESS            0  OF           24  WORKING
 PROCESS            7  OF           24  WORKING
 PROCESS            6  OF           24  WORKING
 PROCESS            1  OF           24  WORKING
 PROCESS            2  OF           24  WORKING
 PROCESS           14  OF           24  WORKING
 PROCESS           21  OF           24  WORKING

         
 *******************************************************************************
 *                                                                             *
 *                               CRYSTAL17                                     *
 *                      public : 1.0.1 - Jun 21st, 2017                        *
 *                       HTTP://WWW.CRYSTAL.UNITO.IT                           *
 *                                                                             *
 *                              MAIN AUTHORS                                   *
 *                                                                             *
 *  R. DOVESI(1,11), V.R. SAUNDERS(2), C. ROETTI(1,11), R. ORLANDO(1,11),      *
 *  C.M. ZICOVICH-WILSON(1,3), F. PASCALE(4), B. CIVALLERI(1,11),              *
 *  K. DOLL(5), N.M. HARRISON(2,6), I.J. BUSH(7), Ph. D'ARCO(8),               *
 *  M. LLUNELL(9), M. CAUSA'(10), Y. NOEL(8), L. MASCHIO(1,11), A. ERBA(1,11)  *
 *  M. RE'RAT(14), S. CASASSA(1,11)                                            *
 *                                                                             *
 *        CONTRIBUTIONS TO THE CODE HAVE ALSO BEEN GIVEN BY                    *
 *                                                                             *
 *  M. FERRABONE(1,11), M. DE LA PIERRE(1,11), M. FERRERO(1,11),               *
 *  J. BAIMA(1,11), E. ALBANESE(1,11), M.F. PEINTINGER(12), R. BAST(13),       *
 *  B. KIRTMAN(15), V. LACIVITA(1,11), R. DEMICHELIS(1,16)                     *
 *  G. BRANDEBURG(17), S. SALUSTRO(1,11), G. SANSONE(1,11)                     *
 *  M.T. RUGGIERO(18)                                                          *
 *                                                                             *
 * (1) THEORETICAL CHEMISTRY GROUP - UNIVERSITA' DI TORINO - TORINO (ITALY)    *

 * (2) COMPUTATIONAL SCIENCE & ENGINEERING DEPARTMENT - STFC DARESBURY (UK)    *
 * (3) UNIVERSIDAD AUTONOMA DEL ESTADO DE MORELOS - CUERNAVACA (MEXICO)        *
 * (4) UNIVERSITE' DE LORRAINE - NANCY (FRANCE)                                *
 * (5) UNIVERSITAET STUTTGART- STUTTGART (GERMANY)                             *
 * (6) IMPERIAL COLLEGE - LONDON (UK)                                          *
 * (7) OXFORD E-RESEARCH CENTRE - OXFORD (UK)                                  *
 * (8) UPMC - SORBONNE UNIVERSITES - PARIS (FRANCE)                            *
 * (9) UNIVERSIDAD DE BARCELONA - BARCELONA (SPAIN)                            *
 *(10) UNIVERSITA' DI NAPOLI "FEDERICO II" - NAPOLI (ITALY)                    *
 *(11) NIS - NANOSTRUCTURED INTERFACES AND SURFACES - TORINO (ITALY)           *
 *(12) MPI FUER CHEMISCHE ENERGIEKONVERSION - MUELHEIM AN DER RUHR (GERMANY)   *
 *(13) UNIVERSITY OF TROMSO - TROMSO (NORWAY)                                  *
 *(14) UNIVERSITE' DE PAU ET DES PAYS DE L'ADOUR - PAU (FRANCE)                *
 *(15) UNIVERSITY OF CALIFORNIA SANTA BARBARA - SANTA BARBARA (USA)            *
 *(16) CURTIN UNIVERSITY - PERTH (AUSTRALIA)                                   *
 *(17) UNIVERSITY COLLEGE LONDON - LONDON (UK)                                 *
 *(18) CAMBRIDGE UNIVERSITY - CAMBRIDGE (UK)                                   *
 *                                                                             *
 *******************************************************************************
 EEEEEEEEEE STARTING  DATE 28 05 2018 TIME 13:36:29.4
 Generated by CrystalWriter                                                      

 CRYSTAL CALCULATION
 (INPUT ACCORDING TO THE INTERNATIONAL TABLES FOR X-RAY CRYSTALLOGRAPHY)
 CRYSTAL FAMILY                       :  TETRAGONAL  
 CRYSTAL CLASS  (GROTH - 1921)        :  DITETRAGONAL DIPYRAMIDAL             

 SPACE GROUP (CENTROSYMMETRIC)        :  P 4/M M M       

 LATTICE PARAMETERS  (ANGSTROMS AND DEGREES) - CONVENTIONAL CELL
        A           B           C        ALPHA        BETA       GAMMA
     3.92785     3.92785     3.43380    90.00000    90.00000    90.00000


 NUMBER OF IRREDUCIBLE ATOMS IN THE CONVENTIONAL CELL:    4

 INPUT COORDINATES

 ATOM AT. N.              COORDINATES
   1 229     5.000000000000E-01  5.000000000000E-01  0.000000000000E+00
   2 208     0.000000000000E+00  5.000000000000E-01  0.000000000000E+00
   3 208     5.000000000000E-01  0.000000000000E+00  0.000000000000E+00
   4 238     0.000000000000E+00  0.000000000000E+00  5.000000000000E-01

 *******************************************************************************

 << INFORMATION >>: FROM NOW ON, ALL COORDINATES REFER TO THE PRIMITIVE CELL

 *******************************************************************************

 LATTICE PARAMETERS  (ANGSTROMS AND DEGREES) - PRIMITIVE CELL
       A          B          C        ALPHA      BETA     GAMMA        VOLUME
    3.92785    3.92785    3.43380    90.00000  90.00000  90.00000     52.976686

 INPUT LIST - ATOM N.   3 NOT IRREDUCIBLE

 COORDINATES OF THE EQUIVALENT ATOMS (FRACTIONAL UNITS)

 N. ATOM EQUIV AT. N.          X                  Y                  Z

   1   1   1  229 CU   -5.00000000000E-01 -5.00000000000E-01  0.00000000000E+00

   2   2   1  208 O     0.00000000000E+00 -5.00000000000E-01  0.00000000000E+00
   3   2   2  208 O     5.00000000000E-01  0.00000000000E+00  0.00000000000E+00


 NUMBER OF SYMMETRY OPERATORS         :   16
 *******************************************************************************
 * GEOMETRY EDITING - INPUT COORDINATES ARE GIVEN IN ANGSTROM         
 *******************************************************************************

 GEOMETRY NOW FULLY CONSISTENT WITH THE GROUP

 NO SYMMOPS WITH FINITE TRANSLATIONAL COMPONENT

 *******************************************************************************
 * SUPERCELL OPTION
 *******************************************************************************

 INFORMATION **** GEXPAD **** SUPERCELL VOLUME NEGATIVE ? - SIGN OF EXPANSION MATRIX REVERSED

        EXPANSION MATRIX OF PRIMITIVE CELL
 E1    -2.000    -2.000     0.000
 E2     2.000    -2.000     0.000
 E3     0.000     0.000     1.000

 NUMBER OF ATOMS PER SUPERCELL    32

        DIRECT LATTICE VECTORS COMPONENTS (ANGSTROM)
 B1    -7.856    -7.856     0.000
 B2     7.856    -7.856     0.000
 B3     0.000     0.000     3.434

 LATTICE PARAMETERS  (ANGSTROM AND DEGREES)
       A          B          C         ALPHA     BETA     GAMMA        VOLUME
   11.10964   11.10964    3.43380    90.00000  90.00000  90.00000    423.813486


 **** ATOMS BELONGING TO THE SUPERCELL
 LABEL AT.NO.      COORDINATES (ANGSTROM AND FRACTIONAL)
     1   229     5.8918    -1.9639     0.0000    -0.2500     0.5000     0.0000
     2   229     5.8918     1.9639     0.0000    -0.5000     0.2500     0.0000
     3   229    -1.9639    -1.9639     0.0000     0.2500     0.0000     0.0000
     4   229    -1.9639     1.9639     0.0000     0.0000    -0.2500     0.0000
     5   229     1.9639     5.8918     0.0000    -0.5000    -0.2500     0.0000
     6   229     1.9639    -5.8918     0.0000     0.2500     0.5000     0.0000
     7   229     1.9639    -1.9639     0.0000     0.0000     0.2500     0.0000
     8   229     1.9639     1.9639     0.0000    -0.2500     0.0000     0.0000
     9   208    -0.0000     5.8918     0.0000    -0.3750    -0.3750     0.0000
    10   208    -0.0000    -5.8918     0.0000     0.3750     0.3750     0.0000
    11   208     0.0000    -1.9639     0.0000     0.1250     0.1250     0.0000
    12   208     0.0000     1.9639     0.0000    -0.1250    -0.1250     0.0000
    13   208    -3.9279    -1.9639     0.0000     0.3750    -0.1250     0.0000
    14   208    -3.9279     1.9639     0.0000     0.1250    -0.3750     0.0000
    15   208     3.9278    -1.9639     0.0000    -0.1250     0.3750     0.0000
    16   208     3.9278     1.9639     0.0000    -0.3750     0.1250     0.0000
    17   208     5.8918     0.0000     0.0000    -0.3750     0.3750     0.0000
    18   208    -1.9639    -3.9278     0.0000     0.3750     0.1250     0.0000
    19   208    -1.9639     0.0000     0.0000     0.1250    -0.1250     0.0000
    20   208    -1.9639     3.9278     0.0000    -0.1250    -0.3750     0.0000
    21   208    -5.8918     0.0000     0.0000     0.3750    -0.3750     0.0000
    22   208     1.9639    -3.9278     0.0000     0.1250     0.3750     0.0000
    23   208     1.9639     0.0000     0.0000    -0.1250     0.1250     0.0000
    24   208     1.9639     3.9278     0.0000    -0.3750    -0.1250     0.0000
    25   238     7.8557     0.0000     1.7169    -0.5000     0.5000     0.5000
    26   238     0.0000    -3.9278     1.7169     0.2500     0.2500     0.5000
    27   238     0.0000     0.0000     1.7169     0.0000     0.0000     0.5000
    28   238     0.0000     3.9278     1.7169    -0.2500    -0.2500     0.5000
    29   238    -3.9279     0.0000     1.7169     0.2500    -0.2500     0.5000
    30   238     3.9278    -3.9278     1.7169     0.0000     0.5000     0.5000
    31   238     3.9278     0.0000     1.7169    -0.2500     0.2500     0.5000
    32   238     3.9278     3.9278     1.7169    -0.5000     0.0000     0.5000

 **************************** SUPERCELL GENERATED ****************************
 *********************************************************************
                        ATOMIC SITE SYMMETRIES
 *********************************************************************


 ATOM   1 ATOMIC NUMBER 229 - NUMBER OF SYMMOPS WHICH DO NOT MOVE THE ATOM   4
 SEQUENCE NUMBERS OF THE SYMMOPS
    1    6   10   13
 NUMBER OF ATOMS EQUIVALENT BY SYMMETRY    3
 SEQUENCE NUMBERS OF THESE ATOMS
    6    2    5
 SEQUENCE NUMBERS OF THE CORRESPONDING SYMMOPS
    2    3    4


 ATOM   2 ATOMIC NUMBER 229 - NUMBER OF SYMMOPS WHICH DO NOT MOVE THE ATOM   4
 SEQUENCE NUMBERS OF THE SYMMOPS
    1    5   10   14
 NUMBER OF ATOMS EQUIVALENT BY SYMMETRY    3
 SEQUENCE NUMBERS OF THESE ATOMS
    5    1    6
 SEQUENCE NUMBERS OF THE CORRESPONDING SYMMOPS
    2    3    4


 ATOM   3 ATOMIC NUMBER 229 - NUMBER OF SYMMOPS WHICH DO NOT MOVE THE ATOM   4
 SEQUENCE NUMBERS OF THE SYMMOPS
    1    6   10   13
 NUMBER OF ATOMS EQUIVALENT BY SYMMETRY    3
 SEQUENCE NUMBERS OF THESE ATOMS
    8    4    7
 SEQUENCE NUMBERS OF THE CORRESPONDING SYMMOPS
    2    3    4


 ATOM   4 ATOMIC NUMBER 229 - NUMBER OF SYMMOPS WHICH DO NOT MOVE THE ATOM   4
 SEQUENCE NUMBERS OF THE SYMMOPS
    1    5   10   14
 NUMBER OF ATOMS EQUIVALENT BY SYMMETRY    3
 SEQUENCE NUMBERS OF THESE ATOMS
    7    3    8
 SEQUENCE NUMBERS OF THE CORRESPONDING SYMMOPS
    2    3    4


 ATOM   5 ATOMIC NUMBER 229 - NUMBER OF SYMMOPS WHICH DO NOT MOVE THE ATOM   4
 SEQUENCE NUMBERS OF THE SYMMOPS
    1    5   10   14
 NUMBER OF ATOMS EQUIVALENT BY SYMMETRY    3
 SEQUENCE NUMBERS OF THESE ATOMS
    2    6    1
 SEQUENCE NUMBERS OF THE CORRESPONDING SYMMOPS
    2    3    4


 ATOM   6 ATOMIC NUMBER 229 - NUMBER OF SYMMOPS WHICH DO NOT MOVE THE ATOM   4
 SEQUENCE NUMBERS OF THE SYMMOPS
    1    6   10   13
 NUMBER OF ATOMS EQUIVALENT BY SYMMETRY    3
 SEQUENCE NUMBERS OF THESE ATOMS
    1    5    2
 SEQUENCE NUMBERS OF THE CORRESPONDING SYMMOPS
    2    3    4


 ATOM   7 ATOMIC NUMBER 229 - NUMBER OF SYMMOPS WHICH DO NOT MOVE THE ATOM   4
 SEQUENCE NUMBERS OF THE SYMMOPS
    1    5   10   14
 NUMBER OF ATOMS EQUIVALENT BY SYMMETRY    3
 SEQUENCE NUMBERS OF THESE ATOMS
    4    8    3
 SEQUENCE NUMBERS OF THE CORRESPONDING SYMMOPS
    2    3    4


 ATOM   8 ATOMIC NUMBER 229 - NUMBER OF SYMMOPS WHICH DO NOT MOVE THE ATOM   4
 SEQUENCE NUMBERS OF THE SYMMOPS
    1    6   10   13
 NUMBER OF ATOMS EQUIVALENT BY SYMMETRY    3
 SEQUENCE NUMBERS OF THESE ATOMS
    3    7    4
 SEQUENCE NUMBERS OF THE CORRESPONDING SYMMOPS
    2    3    4


 ATOM   9 ATOMIC NUMBER 208 - NUMBER OF SYMMOPS WHICH DO NOT MOVE THE ATOM   4
 SEQUENCE NUMBERS OF THE SYMMOPS
    1    4   10   11
 NUMBER OF ATOMS EQUIVALENT BY SYMMETRY    3
 SEQUENCE NUMBERS OF THESE ATOMS
   10   21   17
 SEQUENCE NUMBERS OF THE CORRESPONDING SYMMOPS
    2    5    6


 ATOM  10 ATOMIC NUMBER 208 - NUMBER OF SYMMOPS WHICH DO NOT MOVE THE ATOM   4
 SEQUENCE NUMBERS OF THE SYMMOPS
    1    4   10   11
 NUMBER OF ATOMS EQUIVALENT BY SYMMETRY    3
 SEQUENCE NUMBERS OF THESE ATOMS
    9   17   21
 SEQUENCE NUMBERS OF THE CORRESPONDING SYMMOPS
    2    5    6


 ATOM  11 ATOMIC NUMBER 208 - NUMBER OF SYMMOPS WHICH DO NOT MOVE THE ATOM   4
 SEQUENCE NUMBERS OF THE SYMMOPS
    1    4   10   11
 NUMBER OF ATOMS EQUIVALENT BY SYMMETRY    3
 SEQUENCE NUMBERS OF THESE ATOMS
   12   23   19
 SEQUENCE NUMBERS OF THE CORRESPONDING SYMMOPS
    2    5    6


 ATOM  12 ATOMIC NUMBER 208 - NUMBER OF SYMMOPS WHICH DO NOT MOVE THE ATOM   4
 SEQUENCE NUMBERS OF THE SYMMOPS
    1    4   10   11
 NUMBER OF ATOMS EQUIVALENT BY SYMMETRY    3
 SEQUENCE NUMBERS OF THESE ATOMS
   11   19   23
 SEQUENCE NUMBERS OF THE CORRESPONDING SYMMOPS
    2    5    6


 ATOM  13 ATOMIC NUMBER 208 - NUMBER OF SYMMOPS WHICH DO NOT MOVE THE ATOM   2
 SEQUENCE NUMBERS OF THE SYMMOPS
    1   10
 NUMBER OF ATOMS EQUIVALENT BY SYMMETRY    7
 SEQUENCE NUMBERS OF THESE ATOMS
   16   14   15   24   18   20   22
 SEQUENCE NUMBERS OF THE CORRESPONDING SYMMOPS
    2    3    4    5    6    7    8


 ATOM  14 ATOMIC NUMBER 208 - NUMBER OF SYMMOPS WHICH DO NOT MOVE THE ATOM   2
 SEQUENCE NUMBERS OF THE SYMMOPS
    1   10
 NUMBER OF ATOMS EQUIVALENT BY SYMMETRY    7
 SEQUENCE NUMBERS OF THESE ATOMS
   15   13   16   20   22   24   18
 SEQUENCE NUMBERS OF THE CORRESPONDING SYMMOPS
    2    3    4    5    6    7    8


 ATOM  15 ATOMIC NUMBER 208 - NUMBER OF SYMMOPS WHICH DO NOT MOVE THE ATOM   2
 SEQUENCE NUMBERS OF THE SYMMOPS
    1   10
 NUMBER OF ATOMS EQUIVALENT BY SYMMETRY    7
 SEQUENCE NUMBERS OF THESE ATOMS
   14   16   13   22   20   18   24
 SEQUENCE NUMBERS OF THE CORRESPONDING SYMMOPS
    2    3    4    5    6    7    8


 ATOM  16 ATOMIC NUMBER 208 - NUMBER OF SYMMOPS WHICH DO NOT MOVE THE ATOM   2
 SEQUENCE NUMBERS OF THE SYMMOPS
    1   10
 NUMBER OF ATOMS EQUIVALENT BY SYMMETRY    7
 SEQUENCE NUMBERS OF THESE ATOMS
   13   15   14   18   24   22   20
 SEQUENCE NUMBERS OF THE CORRESPONDING SYMMOPS
    2    3    4    5    6    7    8


 ATOM  17 ATOMIC NUMBER 208 - NUMBER OF SYMMOPS WHICH DO NOT MOVE THE ATOM   4
 SEQUENCE NUMBERS OF THE SYMMOPS
    1    3   10   12
 NUMBER OF ATOMS EQUIVALENT BY SYMMETRY    3
 SEQUENCE NUMBERS OF THESE ATOMS
   21   10    9
 SEQUENCE NUMBERS OF THE CORRESPONDING SYMMOPS
    2    5    6


 ATOM  18 ATOMIC NUMBER 208 - NUMBER OF SYMMOPS WHICH DO NOT MOVE THE ATOM   2
 SEQUENCE NUMBERS OF THE SYMMOPS
    1   10
 NUMBER OF ATOMS EQUIVALENT BY SYMMETRY    7
 SEQUENCE NUMBERS OF THESE ATOMS
   24   20   22   16   13   14   15
 SEQUENCE NUMBERS OF THE CORRESPONDING SYMMOPS
    2    3    4    5    6    7    8


 ATOM  19 ATOMIC NUMBER 208 - NUMBER OF SYMMOPS WHICH DO NOT MOVE THE ATOM   4
 SEQUENCE NUMBERS OF THE SYMMOPS
    1    3   10   12
 NUMBER OF ATOMS EQUIVALENT BY SYMMETRY    3
 SEQUENCE NUMBERS OF THESE ATOMS
   23   12   11
 SEQUENCE NUMBERS OF THE CORRESPONDING SYMMOPS
    2    5    6


 ATOM  20 ATOMIC NUMBER 208 - NUMBER OF SYMMOPS WHICH DO NOT MOVE THE ATOM   2
 SEQUENCE NUMBERS OF THE SYMMOPS
    1   10
 NUMBER OF ATOMS EQUIVALENT BY SYMMETRY    7
 SEQUENCE NUMBERS OF THESE ATOMS
   22   18   24   14   15   16   13
 SEQUENCE NUMBERS OF THE CORRESPONDING SYMMOPS
    2    3    4    5    6    7    8


 ATOM  21 ATOMIC NUMBER 208 - NUMBER OF SYMMOPS WHICH DO NOT MOVE THE ATOM   4
 SEQUENCE NUMBERS OF THE SYMMOPS
    1    3   10   12
 NUMBER OF ATOMS EQUIVALENT BY SYMMETRY    3
 SEQUENCE NUMBERS OF THESE ATOMS
   17    9   10
 SEQUENCE NUMBERS OF THE CORRESPONDING SYMMOPS
    2    5    6


 ATOM  22 ATOMIC NUMBER 208 - NUMBER OF SYMMOPS WHICH DO NOT MOVE THE ATOM   2
 SEQUENCE NUMBERS OF THE SYMMOPS
    1   10
 NUMBER OF ATOMS EQUIVALENT BY SYMMETRY    7
 SEQUENCE NUMBERS OF THESE ATOMS
   20   24   18   15   14   13   16
 SEQUENCE NUMBERS OF THE CORRESPONDING SYMMOPS
    2    3    4    5    6    7    8


 ATOM  23 ATOMIC NUMBER 208 - NUMBER OF SYMMOPS WHICH DO NOT MOVE THE ATOM   4
 SEQUENCE NUMBERS OF THE SYMMOPS
    1    3   10   12
 NUMBER OF ATOMS EQUIVALENT BY SYMMETRY    3
 SEQUENCE NUMBERS OF THESE ATOMS
   19   11   12
 SEQUENCE NUMBERS OF THE CORRESPONDING SYMMOPS
    2    5    6


 ATOM  24 ATOMIC NUMBER 208 - NUMBER OF SYMMOPS WHICH DO NOT MOVE THE ATOM   2
 SEQUENCE NUMBERS OF THE SYMMOPS
    1   10
 NUMBER OF ATOMS EQUIVALENT BY SYMMETRY    7
 SEQUENCE NUMBERS OF THESE ATOMS
   18   22   20   13   16   15   14
 SEQUENCE NUMBERS OF THE CORRESPONDING SYMMOPS
    2    3    4    5    6    7    8


 ATOM  25 ATOMIC NUMBER 238 - NUMBER OF SYMMOPS WHICH DO NOT MOVE THE ATOM  16
 SEQUENCE NUMBERS OF THE SYMMOPS
    1    2    3    4    5    6    7    8    9   10   11   12   13   14   15
   16
 NO EQUIVALENT ATOMS


 ATOM  26 ATOMIC NUMBER 238 - NUMBER OF SYMMOPS WHICH DO NOT MOVE THE ATOM   4
 SEQUENCE NUMBERS OF THE SYMMOPS
    1    4   10   11
 NUMBER OF ATOMS EQUIVALENT BY SYMMETRY    3
 SEQUENCE NUMBERS OF THESE ATOMS
   28   31   29
 SEQUENCE NUMBERS OF THE CORRESPONDING SYMMOPS
    2    5    6


 ATOM  27 ATOMIC NUMBER 238 - NUMBER OF SYMMOPS WHICH DO NOT MOVE THE ATOM  16
 SEQUENCE NUMBERS OF THE SYMMOPS
    1    2    3    4    5    6    7    8    9   10   11   12   13   14   15
   16
 NO EQUIVALENT ATOMS


 ATOM  28 ATOMIC NUMBER 238 - NUMBER OF SYMMOPS WHICH DO NOT MOVE THE ATOM   4
 SEQUENCE NUMBERS OF THE SYMMOPS
    1    4   10   11
 NUMBER OF ATOMS EQUIVALENT BY SYMMETRY    3
 SEQUENCE NUMBERS OF THESE ATOMS
   26   29   31
 SEQUENCE NUMBERS OF THE CORRESPONDING SYMMOPS
    2    5    6


 ATOM  29 ATOMIC NUMBER 238 - NUMBER OF SYMMOPS WHICH DO NOT MOVE THE ATOM   4
 SEQUENCE NUMBERS OF THE SYMMOPS
    1    3   10   12
 NUMBER OF ATOMS EQUIVALENT BY SYMMETRY    3
 SEQUENCE NUMBERS OF THESE ATOMS
   31   28   26
 SEQUENCE NUMBERS OF THE CORRESPONDING SYMMOPS
    2    5    6


 ATOM  30 ATOMIC NUMBER 238 - NUMBER OF SYMMOPS WHICH DO NOT MOVE THE ATOM   8
 SEQUENCE NUMBERS OF THE SYMMOPS
    1    2    5    6    9   10   13   14
 NUMBER OF ATOMS EQUIVALENT BY SYMMETRY    1
 SEQUENCE NUMBERS OF THESE ATOMS
   32
 SEQUENCE NUMBERS OF THE CORRESPONDING SYMMOPS
    3


 ATOM  31 ATOMIC NUMBER 238 - NUMBER OF SYMMOPS WHICH DO NOT MOVE THE ATOM   4
 SEQUENCE NUMBERS OF THE SYMMOPS
    1    3   10   12
 NUMBER OF ATOMS EQUIVALENT BY SYMMETRY    3
 SEQUENCE NUMBERS OF THESE ATOMS
   29   26   28
 SEQUENCE NUMBERS OF THE CORRESPONDING SYMMOPS
    2    5    6


 ATOM  32 ATOMIC NUMBER 238 - NUMBER OF SYMMOPS WHICH DO NOT MOVE THE ATOM   8
 SEQUENCE NUMBERS OF THE SYMMOPS
    1    2    5    6    9   10   13   14
 NUMBER OF ATOMS EQUIVALENT BY SYMMETRY    1
 SEQUENCE NUMBERS OF THESE ATOMS
   30
 SEQUENCE NUMBERS OF THE CORRESPONDING SYMMOPS
    3

 *****   16 SYMMOPS - TRANSLATORS IN ANGSTROM
 ***** MATRICES AND TRANSLATORS IN THE CARTESIAN REFERENCE FRAME

 ORDER   : ORDER OF THE OPERATOR

 TRANSLA : REAL TRANSLATION (WITHOUT ORIGIN SHIFT) IN CARTESIAN COORDINATES

 uvw/hkl : ORIENTATION OF THE OPERATOR IN CARTESIAN COORDINATES

 LOCATED : ORIGIN OF THE OPERATOR IN CARTESIAN COORDINATES

   NO.   1 INVERSE   1    ORDER   1        NO.   2 INVERSE   2    ORDER   2
    1.000   0.000   0.000     0.000        -1.000   0.000   0.000     0.000
    0.000   1.000   0.000     0.000         0.000  -1.000   0.000     0.000
    0.000   0.000   1.000     0.000         0.000   0.000   1.000     0.000
             OPERATION E(   1)                       OPERATION C(   2)
 DETERMINANT 1.; ROTATION(DEG)   0.      DETERMINANT 1.; ROTATION(DEG) 180.
 TRANSLA (  0.000    0.000    0.000)     TRANSLA (  0.000    0.000    0.000)
 uvw/hkl (  0.000    0.000    0.000)     uvw/hkl (  0.000    0.000    4.000)
 LOCATED (  0.000    0.000    0.000)     LOCATED (  0.000    0.000    0.000)

   NO.   3 INVERSE   3    ORDER   2        NO.   4 INVERSE   4    ORDER   2
    1.000   0.000   0.000     0.000        -1.000   0.000   0.000     0.000
    0.000  -1.000   0.000     0.000         0.000   1.000   0.000     0.000
    0.000   0.000  -1.000     0.000         0.000   0.000  -1.000     0.000
             OPERATION C(   2)                       OPERATION C(   2)
 DETERMINANT 1.; ROTATION(DEG) 180.      DETERMINANT 1.; ROTATION(DEG) 180.
 TRANSLA (  0.000    0.000    0.000)     TRANSLA (  0.000    0.000    0.000)
 uvw/hkl (  4.000    0.000    0.000)     uvw/hkl (  0.000   -4.000    0.000)
 LOCATED (  0.000    0.000    0.000)     LOCATED (  0.000    0.000    0.000)

   NO.   5 INVERSE   5    ORDER   2        NO.   6 INVERSE   6    ORDER   2
    0.000  -1.000   0.000     0.000         0.000   1.000   0.000     0.000
   -1.000   0.000   0.000     0.000         1.000   0.000   0.000     0.000
    0.000   0.000  -1.000     0.000         0.000   0.000  -1.000     0.000
             OPERATION C(   2)                       OPERATION C(   2)
 DETERMINANT 1.; ROTATION(DEG) 180.      DETERMINANT 1.; ROTATION(DEG) 180.
 TRANSLA (  0.000    0.000    0.000)     TRANSLA (  0.000    0.000    0.000)
 uvw/hkl (  2.000   -2.000    0.000)     uvw/hkl ( -2.000   -2.000    0.000)
 LOCATED (  0.000    0.000    0.000)     LOCATED (  0.000    0.000    0.000)

   NO.   7 INVERSE   8    ORDER   4        NO.   8 INVERSE   7    ORDER   4
    0.000   1.000   0.000     0.000         0.000  -1.000   0.000     0.000
   -1.000   0.000   0.000     0.000         1.000   0.000   0.000     0.000
    0.000   0.000   1.000     0.000         0.000   0.000   1.000     0.000
             OPERATION C(   4)                       OPERATION C(   4)
 DETERMINANT 1.; ROTATION(DEG)  90.      DETERMINANT 1.; ROTATION(DEG)  90.
 TRANSLA (  0.000    0.000    0.000)     TRANSLA (  0.000    0.000    0.000)
 uvw/hkl (  0.000    0.000    2.000)     uvw/hkl (  0.000    0.000    2.000)
 LOCATED (  0.000    0.000    0.000)     LOCATED (  0.000    0.000    0.000)

   NO.   9 INVERSE   9    ORDER   2        NO.  10 INVERSE  10    ORDER   2
   -1.000   0.000   0.000     0.000         1.000   0.000   0.000     0.000
    0.000  -1.000   0.000     0.000         0.000   1.000   0.000     0.000
    0.000   0.000  -1.000     0.000         0.000   0.000  -1.000     0.000
             OPERATION I(   2)                       OPERATION M(   2)
 DETERMINANT-1.; ROTATION(DEG) 180.      DETERMINANT-1.; ROTATION(DEG)   0.
 TRANSLA (  0.000    0.000    0.000)     TRANSLA (  0.000    0.000    0.000)
 uvw/hkl (  0.000    0.000    0.000)     uvw/hkl (  0.000    0.000   -2.000)
 LOCATED (  0.000    0.000    0.000)     LOCATED (  0.000    0.000    0.000)

   NO.  11 INVERSE  11    ORDER   2        NO.  12 INVERSE  12    ORDER   2
   -1.000   0.000   0.000     0.000         1.000   0.000   0.000     0.000
    0.000   1.000   0.000     0.000         0.000  -1.000   0.000     0.000
    0.000   0.000   1.000     0.000         0.000   0.000   1.000     0.000
             OPERATION M(   2)                       OPERATION M(   2)
 DETERMINANT-1.; ROTATION(DEG)   0.      DETERMINANT-1.; ROTATION(DEG)   0.
 TRANSLA (  0.000    0.000    0.000)     TRANSLA (  0.000    0.000    0.000)
 uvw/hkl (  2.000    0.000    0.000)     uvw/hkl (  0.000   -2.000    0.000)
 LOCATED (  0.000    0.000    0.000)     LOCATED (  0.000    0.000    0.000)

   NO.  13 INVERSE  13    ORDER   2        NO.  14 INVERSE  14    ORDER   2
    0.000   1.000   0.000     0.000         0.000  -1.000   0.000     0.000
    1.000   0.000   0.000     0.000        -1.000   0.000   0.000     0.000
    0.000   0.000   1.000     0.000         0.000   0.000   1.000     0.000
             OPERATION M(   2)                       OPERATION M(   2)
 DETERMINANT-1.; ROTATION(DEG)   0.      DETERMINANT-1.; ROTATION(DEG)   0.
 TRANSLA (  0.000    0.000    0.000)     TRANSLA (  0.000    0.000    0.000)
 uvw/hkl (  1.000   -1.000    0.000)     uvw/hkl (  1.000    1.000    0.000)
 LOCATED (  0.000    0.000    0.000)     LOCATED (  0.000    0.000    0.000)

   NO.  15 INVERSE  16    ORDER   4        NO.  16 INVERSE  15    ORDER   4
    0.000  -1.000   0.000     0.000         0.000   1.000   0.000     0.000
    1.000   0.000   0.000     0.000        -1.000   0.000   0.000     0.000
    0.000   0.000  -1.000     0.000         0.000   0.000  -1.000     0.000
             OPERATION S(   4)                       OPERATION S(   4)
 DETERMINANT-1.; ROTATION(DEG)  90.      DETERMINANT-1.; ROTATION(DEG)  90.
 TRANSLA (  0.000    0.000    0.000)     TRANSLA (  0.000    0.000    0.000)
 uvw/hkl (  0.000    0.000    2.000)     uvw/hkl (  0.000    0.000    2.000)
 LOCATED (  0.000    0.000    0.000)     LOCATED (  0.000    0.000    0.000)
 SSSSSSSSSSSSSSSSSSSSSSSSSSSSSSSSSSSSSSSSSSSSSSSSSSSSSSSSSSSSSSSSSSSSSSSSSSSSSS
 REDUCTION OF SYMMETRY - ATOMIC LABELS SET TO (ATOM, AT. N., LABEL)
   1(229) 1;   2(229) 2;   3(229) 1;   4(229) 2;   5(229) 2;   6(229) 1;
   7(229) 2;   8(229) 1;   9(208) 0;  10(208) 0;  11(208) 0;  12(208) 0;
  13(208) 0;  14(208) 0;  15(208) 0;  16(208) 0;  17(208) 0;  18(208) 0;
  19(208) 0;  20(208) 0;  21(208) 0;  22(208) 0;  23(208) 0;  24(208) 0;
  25(238) 0;  26(238) 0;  27(238) 0;  28(238) 0;  29(238) 0;  30(238) 0;
  31(238) 0;  32(238) 0;
 THE NUMBER OF SYMMETRY OPERATORS HAS BEEN REDUCED FROM 16 TO  8
 *******************************************************************************

 GCALCO - MAX INDICES DIRECT LATTICE VECTOR     9     9    32
 NO.OF VECTORS CREATED 6999 STARS  569 RMAX   168.68580 BOHR

 GEOMETRY FOR WAVE FUNCTION - DIMENSIONALITY OF THE SYSTEM    3
 (NON PERIODIC DIRECTION: LATTICE PARAMETER FORMALLY SET TO 500)
 *******************************************************************************
 LATTICE PARAMETERS (ANGSTROMS AND DEGREES) - BOHR = 0.5291772083 ANGSTROM
 PRIMITIVE CELL - CENTRING CODE 1/1 VOLUME=   423.813486 - DENSITY  5.731 g/cm^3
         A              B              C           ALPHA      BETA       GAMMA 
    11.10963748    11.10963748     3.43380000    90.000000  90.000000  90.000000
 *******************************************************************************
 ATOMS IN THE ASYMMETRIC UNIT   13 - ATOMS IN THE UNIT CELL:   32
     ATOM                 X/A                 Y/B                 Z/C    
 *******************************************************************************
      1 T 229 CU   -2.500000000000E-01 -5.000000000000E-01  0.000000000000E+00
      2 T 229 CU   -5.000000000000E-01  2.500000000000E-01  0.000000000000E+00
      3 T 229 CU    2.500000000000E-01  0.000000000000E+00  0.000000000000E+00
      4 T 229 CU    0.000000000000E+00 -2.500000000000E-01  0.000000000000E+00
      5 F 229 CU   -5.000000000000E-01 -2.500000000000E-01  0.000000000000E+00
      6 F 229 CU    2.500000000000E-01 -5.000000000000E-01  0.000000000000E+00
      7 F 229 CU    0.000000000000E+00  2.500000000000E-01  0.000000000000E+00
      8 F 229 CU   -2.500000000000E-01  0.000000000000E+00  0.000000000000E+00
      9 T 208 O    -3.750000000000E-01 -3.750000000000E-01  0.000000000000E+00
     10 F 208 O     3.750000000000E-01  3.750000000000E-01  0.000000000000E+00
     11 T 208 O     1.250000000000E-01  1.250000000000E-01  0.000000000000E+00
     12 F 208 O    -1.250000000000E-01 -1.250000000000E-01  0.000000000000E+00
     13 T 208 O     3.750000000000E-01 -1.250000000000E-01  0.000000000000E+00
     14 T 208 O     1.250000000000E-01 -3.750000000000E-01  0.000000000000E+00
     15 F 208 O    -1.250000000000E-01  3.750000000000E-01  0.000000000000E+00
     16 F 208 O    -3.750000000000E-01  1.250000000000E-01  0.000000000000E+00
     17 F 208 O    -3.750000000000E-01  3.750000000000E-01  0.000000000000E+00
     18 F 208 O     3.750000000000E-01  1.250000000000E-01  0.000000000000E+00
     19 F 208 O     1.250000000000E-01 -1.250000000000E-01  0.000000000000E+00
     20 F 208 O    -1.250000000000E-01 -3.750000000000E-01  0.000000000000E+00
     21 F 208 O     3.750000000000E-01 -3.750000000000E-01  0.000000000000E+00
     22 F 208 O     1.250000000000E-01  3.750000000000E-01  0.000000000000E+00
     23 F 208 O    -1.250000000000E-01  1.250000000000E-01  0.000000000000E+00
     24 F 208 O    -3.750000000000E-01 -1.250000000000E-01  0.000000000000E+00
     25 T 238 SR   -5.000000000000E-01 -5.000000000000E-01  5.000000000000E-01
     26 T 238 SR    2.500000000000E-01  2.500000000000E-01  5.000000000000E-01
     27 T 238 SR    0.000000000000E+00  0.000000000000E+00  5.000000000000E-01
     28 F 238 SR   -2.500000000000E-01 -2.500000000000E-01  5.000000000000E-01
     29 F 238 SR    2.500000000000E-01 -2.500000000000E-01  5.000000000000E-01
     30 T 238 SR    0.000000000000E+00 -5.000000000000E-01  5.000000000000E-01
     31 F 238 SR   -2.500000000000E-01  2.500000000000E-01  5.000000000000E-01
     32 T 238 SR   -5.000000000000E-01  0.000000000000E+00  5.000000000000E-01

 T = ATOM BELONGING TO THE ASYMMETRIC UNIT

 ****    8 SYMMOPS - TRANSLATORS IN FRACTIONAL UNITS
 **** MATRICES AND TRANSLATORS IN THE CRYSTALLOGRAPHIC REFERENCE FRAME
   V INV                    ROTATION MATRICES                   TRANSLATORS
   1   1  1.00  0.00  0.00  0.00  1.00  0.00  0.00  0.00  1.00  0.00  0.00  0.00
   2   2 -1.00  0.00  0.00  0.00 -1.00  0.00  0.00  0.00  1.00  0.00  0.00  0.00
   3   3 -1.00  0.00  0.00 -0.00  1.00  0.00  0.00  0.00 -1.00  0.00  0.00  0.00
   4   4  1.00 -0.00  0.00  0.00 -1.00  0.00  0.00  0.00 -1.00  0.00  0.00  0.00
   5   5 -1.00  0.00  0.00  0.00 -1.00  0.00  0.00  0.00 -1.00  0.00  0.00  0.00
   6   6  1.00 -0.00  0.00 -0.00  1.00  0.00  0.00  0.00 -1.00  0.00  0.00  0.00
   7   7  1.00 -0.00  0.00  0.00 -1.00  0.00  0.00  0.00  1.00  0.00  0.00  0.00
   8   8 -1.00  0.00  0.00 -0.00  1.00  0.00  0.00  0.00  1.00  0.00  0.00  0.00

 DIRECT LATTICE VECTORS CARTESIAN COMPONENTS (ANGSTROM)
          X                    Y                    Z
  -0.785570000000E+01  -0.785570000000E+01   0.000000000000E+00
   0.785570000000E+01  -0.785570000000E+01   0.000000000000E+00
   0.000000000000E+00   0.000000000000E+00   0.343380000000E+01


 CARTESIAN COORDINATES - PRIMITIVE CELL
 *******************************************************************************
 *      ATOM          X(ANGSTROM)         Y(ANGSTROM)         Z(ANGSTROM)
 *******************************************************************************
    1   229 CU    5.891775000000E+00 -1.963925000000E+00  0.000000000000E+00
    2   229 CU   -1.963925000000E+00 -5.891775000000E+00  0.000000000000E+00
    3   229 CU   -1.963925000000E+00 -1.963925000000E+00  0.000000000000E+00
    4   229 CU   -1.963925000000E+00  1.963925000000E+00  0.000000000000E+00
    5   229 CU   -5.891775000000E+00 -1.963925000000E+00  0.000000000000E+00
    6   229 CU    1.963925000000E+00 -5.891775000000E+00  0.000000000000E+00
    7   229 CU    1.963925000000E+00 -1.963925000000E+00  0.000000000000E+00
    8   229 CU    1.963925000000E+00  1.963925000000E+00  0.000000000000E+00
    9   208 O    -9.400075532184E-16  5.891775000000E+00  0.000000000000E+00
   10   208 O    -9.400075532184E-16 -5.891775000000E+00  0.000000000000E+00
   11   208 O     0.000000000000E+00 -1.963925000000E+00  0.000000000000E+00
   12   208 O     4.700037766092E-16  1.963925000000E+00  0.000000000000E+00
   13   208 O    -3.927850000000E+00 -1.963925000000E+00  0.000000000000E+00
   14   208 O    -3.927850000000E+00  1.963925000000E+00  0.000000000000E+00
   15   208 O     3.927850000000E+00 -1.963925000000E+00  0.000000000000E+00
   16   208 O     3.927850000000E+00  1.963925000000E+00  0.000000000000E+00
   17   208 O     5.891775000000E+00  9.400075532184E-16  0.000000000000E+00
   18   208 O    -1.963925000000E+00 -3.927850000000E+00  0.000000000000E+00
   19   208 O    -1.963925000000E+00  0.000000000000E+00  0.000000000000E+00
   20   208 O    -1.963925000000E+00  3.927850000000E+00  0.000000000000E+00
   21   208 O    -5.891775000000E+00  1.880015106437E-15  0.000000000000E+00
   22   208 O     1.963925000000E+00 -3.927850000000E+00  0.000000000000E+00
   23   208 O     1.963925000000E+00  4.700037766092E-16  0.000000000000E+00
   24   208 O     1.963925000000E+00  3.927850000000E+00  0.000000000000E+00
   25   238 SR    0.000000000000E+00 -7.855700000000E+00  1.716900000000E+00
   26   238 SR    0.000000000000E+00 -3.927850000000E+00  1.716900000000E+00
   27   238 SR    0.000000000000E+00  0.000000000000E+00  1.716900000000E+00
   28   238 SR    4.700037766092E-16  3.927850000000E+00  1.716900000000E+00
   29   238 SR   -3.927850000000E+00  1.645013218132E-15  1.716900000000E+00
   30   238 SR    3.927850000000E+00 -3.927850000000E+00  1.716900000000E+00
   31   238 SR    3.927850000000E+00  4.700037766092E-16  1.716900000000E+00
   32   238 SR   -3.927850000000E+00 -3.927850000000E+00  1.716900000000E+00

 *******************************************************************************
 *** PSEUDOPOTENTIAL INFORMATION ***
 *******************************************************************************

 ATOMIC NUMBER  29, NUCLEAR CHARGE 19.000, GIVEN IN INPUT       PSEUDOPOTENTIAL
   TYPE       EXPONENT      COEFF.    N      EXPONENT      COEFF.    N
  W0 TMS     6.2514963   19.0000000  -1     6.7272533  118.7784294   1
             6.6102459 -105.8998240   0
  P0 TMS    12.3656871  127.3506942   0
  P1 TMS    11.1607294   71.2298490   0

 ATOMIC NUMBER   8, NUCLEAR CHARGE  6.000, GIVEN IN INPUT       PSEUDOPOTENTIAL
   TYPE       EXPONENT      COEFF.    N      EXPONENT      COEFF.    N
  W0 TMS     9.2979390    6.0000000  -1     8.8649220   55.7876342   1
             8.6292567  -38.8197850   0
  P0 TMS     8.7192445   38.4191413   0

 ATOMIC NUMBER  38, NUCLEAR CHARGE  2.000, GIVEN IN INPUT       PSEUDOPOTENTIAL
   TYPE       EXPONENT      COEFF.    N      EXPONENT      COEFF.    N
  W0 TMS     4.3839388    2.0000000  -1     3.1964983    8.7678775   1
             0.9899150  -14.2552431   0
  P0 TMS     1.2868349  146.8716052   0
  P1 TMS     0.9567448  140.0262284   0
  P2 TMS     1.9483165   24.4454878   0
 INFORMATION **** CHARGED ****  CHARGED CELL - NO TOTAL ENERGY

 *******************************************************************************
 LOCAL ATOMIC FUNCTIONS BASIS SET
 *******************************************************************************
   ATOM   X(AU)   Y(AU)   Z(AU)  N. TYPE  EXPONENT  S COEF   P COEF   D/F/G COEF
 *******************************************************************************
   1 CU  11.134  -3.711   0.000
                                  1 S  
                                         2.000E-01 2.869E-02 0.000E+00 0.000E+00
                                         4.000E-01-3.644E-02 0.000E+00 0.000E+00
                                         8.000E-01 3.588E-01 0.000E+00 0.000E+00
                                         1.600E+00 4.743E-01 0.000E+00 0.000E+00
                                         3.200E+00 4.984E-01 0.000E+00 0.000E+00
                                         6.400E+00-2.701E-01 0.000E+00 0.000E+00
                                         1.280E+01-1.921E-01 0.000E+00 0.000E+00
                                         2.560E+01 6.296E-02 0.000E+00 0.000E+00
                                         5.120E+01-8.536E-03 0.000E+00 0.000E+00
                                         1.024E+02 8.122E-04 0.000E+00 0.000E+00
                                  2 S  
                                         2.000E-01 2.202E+00 0.000E+00 0.000E+00
                                         4.000E-01-2.282E+00 0.000E+00 0.000E+00
                                         8.000E-01 1.463E+00 0.000E+00 0.000E+00
                                         1.600E+00-1.100E+00 0.000E+00 0.000E+00
                                         3.200E+00 2.968E-01 0.000E+00 0.000E+00
                                         6.400E+00-1.215E-01 0.000E+00 0.000E+00
                                         1.280E+01 1.179E-01 0.000E+00 0.000E+00
                                         2.560E+01-3.414E-02 0.000E+00 0.000E+00
                                         5.120E+01 5.951E-03 0.000E+00 0.000E+00
                                         1.024E+02-7.152E-04 0.000E+00 0.000E+00
                           3-     5 P  
                                         1.859E+01 0.000E+00 3.652E-03 0.000E+00
                                         1.430E+01 0.000E+00-3.708E-02 0.000E+00
                                         5.631E+00 0.000E+00 2.171E-01 0.000E+00
                                         2.683E+00 0.000E+00 4.410E-01 0.000E+00
                                         1.259E+00 0.000E+00 3.587E-01 0.000E+00
                                         5.741E-01 0.000E+00 1.148E-01 0.000E+00
                                         2.092E-01 0.000E+00 7.316E-03 0.000E+00
                           6-    10 D  
                                         2.000E-01 0.000E+00 0.000E+00 2.793E-01
                                         4.000E-01 0.000E+00 0.000E+00-1.172E-01
                                         8.000E-01 0.000E+00 0.000E+00 4.205E-01
                                         1.600E+00 0.000E+00 0.000E+00 1.666E-01
                                         3.200E+00 0.000E+00 0.000E+00 3.152E-01
                                         6.400E+00 0.000E+00 0.000E+00 2.011E-01
                                         1.280E+01 0.000E+00 0.000E+00 1.280E-01
                                         2.560E+01 0.000E+00 0.000E+00 8.945E-03
                                         5.120E+01 0.000E+00 0.000E+00-5.173E-04
                                         1.024E+02 0.000E+00 0.000E+00 2.473E-05
                          11-    17 F  
                                         1.692E+00 0.000E+00 0.000E+00 1.000E+00
                                 18 S  
                                         2.000E-01 1.000E+00 0.000E+00 0.000E+00
                                 19 S  
                                         6.000E-01 1.000E+00 0.000E+00 0.000E+00
                          20-    22 P  
                                         2.000E-01 0.000E+00 1.000E+00 0.000E+00
                          23-    25 P  
                                         6.000E-01 0.000E+00 1.000E+00 0.000E+00
                          26-    30 D  
                                         2.000E-01 0.000E+00 0.000E+00 1.000E+00
                          31-    35 D  
                                         6.000E-01 0.000E+00 0.000E+00 1.000E+00
   2 CU  -3.711 -11.134   0.000
   3 CU  -3.711  -3.711   0.000
   4 CU  -3.711   3.711   0.000
   5 CU -11.134  -3.711   0.000
   6 CU   3.711 -11.134   0.000
   7 CU   3.711  -3.711   0.000
   8 CU   3.711   3.711   0.000
   9 O   -0.000  11.134   0.000
                                281 S  
                                         2.000E-01 2.154E-01 0.000E+00 0.000E+00
                                         4.000E-01 3.519E-01 0.000E+00 0.000E+00
                                         8.000E-01 3.951E-01 0.000E+00 0.000E+00
                                         1.600E+00 1.795E-01 0.000E+00 0.000E+00
                                         3.200E+00-4.321E-02 0.000E+00 0.000E+00
                                         6.400E+00-1.052E-01 0.000E+00 0.000E+00
                                         1.280E+01 1.978E-02 0.000E+00 0.000E+00
                                         2.560E+01-1.974E-03 0.000E+00 0.000E+00
                                         5.120E+01 3.878E-04 0.000E+00 0.000E+00
                                         1.024E+02-5.576E-05 0.000E+00 0.000E+00
                         282-   284 P  
                                         2.000E-01 0.000E+00 2.831E-01 0.000E+00
                                         4.000E-01 0.000E+00 2.058E-01 0.000E+00
                                         8.000E-01 0.000E+00 3.032E-01 0.000E+00
                                         1.600E+00 0.000E+00 2.188E-01 0.000E+00
                                         3.200E+00 0.000E+00 1.362E-01 0.000E+00
                                         6.400E+00 0.000E+00 7.101E-02 0.000E+00
                                         1.280E+01 0.000E+00 2.742E-02 0.000E+00
                                         2.560E+01 0.000E+00 1.611E-03 0.000E+00
                                         5.120E+01 0.000E+00 1.514E-05 0.000E+00
                                         1.024E+02 0.000E+00-2.817E-06 0.000E+00
                         285-   289 D  
                                         6.693E-01 0.000E+00 0.000E+00 1.000E+00
                         290-   296 F  
                                         1.423E+00 0.000E+00 0.000E+00 1.000E+00
                                297 S  
                                         2.000E-01 1.000E+00 0.000E+00 0.000E+00
                                298 S  
                                         6.000E-01 1.000E+00 0.000E+00 0.000E+00
                         299-   301 P  
                                         2.000E-01 0.000E+00 1.000E+00 0.000E+00
                         302-   304 P  
                                         6.000E-01 0.000E+00 1.000E+00 0.000E+00
  10 O   -0.000 -11.134   0.000
  11 O    0.000  -3.711   0.000
  12 O    0.000   3.711   0.000
  13 O   -7.423  -3.711   0.000
  14 O   -7.423   3.711   0.000
  15 O    7.423  -3.711   0.000
  16 O    7.423   3.711   0.000
  17 O   11.134   0.000   0.000
  18 O   -3.711  -7.423   0.000
  19 O   -3.711   0.000   0.000
  20 O   -3.711   7.423   0.000
  21 O  -11.134   0.000   0.000
  22 O    3.711  -7.423   0.000
  23 O    3.711   0.000   0.000
  24 O    3.711   7.423   0.000
  25 SR   0.000 -14.845   3.244
                                665 S  
                                         2.000E-01 6.885E-01 0.000E+00 0.000E+00
                                         4.000E-01-1.121E+00 0.000E+00 0.000E+00
                                         8.000E-01 6.678E-01 0.000E+00 0.000E+00
                                         1.600E+00-2.643E-01 0.000E+00 0.000E+00
                                         3.200E+00 1.079E-01 0.000E+00 0.000E+00
                                         6.400E+00-4.671E-02 0.000E+00 0.000E+00
                                         1.280E+01 1.904E-02 0.000E+00 0.000E+00
                                         2.560E+01-6.568E-03 0.000E+00 0.000E+00
                                         5.120E+01 1.555E-03 0.000E+00 0.000E+00
                                         1.024E+02-1.928E-04 0.000E+00 0.000E+00
                         666-   668 P  
                                         2.000E-01 0.000E+00 3.164E-01 0.000E+00
                                         4.000E-01 0.000E+00-4.659E-01 0.000E+00
                                         8.000E-01 0.000E+00 2.270E-01 0.000E+00
                                         1.600E+00 0.000E+00-6.609E-02 0.000E+00
                                         3.200E+00 0.000E+00 1.630E-02 0.000E+00
                                         6.400E+00 0.000E+00-3.651E-03 0.000E+00
                                         1.280E+01 0.000E+00 7.054E-04 0.000E+00
                                         2.560E+01 0.000E+00-1.785E-04 0.000E+00
                                         5.120E+01 0.000E+00 3.065E-05 0.000E+00
                                         1.024E+02 0.000E+00-2.716E-06 0.000E+00
                         669-   673 D  
                                         1.198E-01 0.000E+00 0.000E+00 1.000E+00
                         674-   680 F  
                                         1.645E-01 0.000E+00 0.000E+00 1.000E+00
                                681 S  
                                         2.000E-01 1.000E+00 0.000E+00 0.000E+00
                                682 S  
                                         6.000E-01 1.000E+00 0.000E+00 0.000E+00
                         683-   685 P  
                                         2.000E-01 0.000E+00 1.000E+00 0.000E+00
                         686-   688 P  
                                         6.000E-01 0.000E+00 1.000E+00 0.000E+00
  26 SR   0.000  -7.423   3.244
  27 SR   0.000   0.000   3.244
  28 SR   0.000   7.423   3.244
  29 SR  -7.423   0.000   3.244
  30 SR   7.423  -7.423   3.244
  31 SR   7.423   0.000   3.244
  32 SR  -7.423  -7.423   3.244
 INFORMATION **** SET_MPP **** PCRYSTAL CALCULATION
 INFORMATION **** READM2 **** NEW DEFAULT: FOCK/KS MATRIX MIXING SET TO 30 %
 INFORMATION **** READM2 **** NEW DEFAULT: FULL DIRECT SCF MODE
 INFORMATION **** READM2 **** NEW DEFAULT: COULOMB BIPOLAR BUFFER SET TO 32 Mb
 INFORMATION **** READM2 **** NEW DEFAULT: EXCHANGE BIPOLAR BUFFER SET TO 32 Mb

 *******************************************************************************
 NEW DEFAULT: DFT INTEGRATION GRID INCREASED TO XLGRID
 NEW DEFAULT: DIIS ACCELERATOR ACTIVE
 USE KEYWORD NODIIS TO TURN IT OFF
 *******************************************************************************

 INFORMATION **** READM2 **** FULL DIRECT SCF (MONO AND BIEL INT) SELECTED
 INFORMATION **** BIPOSIZE **** COULOMB BIPOLAR BUFFER SET TO   100000000
 INFORMATION **** EXCHSIZE **** EXCHANGE BIPOLAR BUFFER SIZE SET TO    10000000
 INFORMATION **** TOLDEE **** SCF TOL ON TOTAL ENERGY SET TO           9
 INFORMATION **** TOLINTEG **** COULOMB AND EXCHANGE SERIES TOLERANCES MODIFIED
 INFORMATION **** MAXCYCLE **** MAX NUMBER OF SCF CYCLES SET TO         200
 INFORMATION **** SMEAR **** FERMI SMEARING ACTIVE
 FERMI SMEARING - TEMPERATURE SMEARING OF FERMI SURFACE  0.1000E-12
 INFORMATION **** SPINLOCK **** LOCK IN A GIVEN SPIN STATE
 ALPHA-BETA ELECTRONS LOCKED TO   0 FOR 200 SCF CYCLES
 SSSSSSSSSSSSSSSSSSSSSSSSSSSSSSSSSSSSSSSSSSSSSSSSSSSSSSSSSSSSSSSSSSSSSSSSSSSSSS
 ATOMIC SPINS SET TO (ATOM, AT. N., SPIN)
   1 229 1   2 229-1   3 229 1   4 229-1   5 229-1   6 229 1   7 229-1   8 229 1
   9 208 0  10 208 0  11 208 0  12 208 0  13 208 0  14 208 0  15 208 0  16 208 0
  17 208 0  18 208 0  19 208 0  20 208 0  21 208 0  22 208 0  23 208 0  24 208 0
  25 238 0  26 238 0  27 238 0  28 238 0  29 238 0  30 238 0  31 238 0  32 238 0
 INFORMATION **** SAVEWF **** not fully tested
 *******************************************************************************
 N. OF ATOMS PER CELL        32  COULOMB OVERLAP TOL         (T1) 10**   -8
 NUMBER OF SHELLS           280  COULOMB PENETRATION TOL     (T2) 10**   -8
 NUMBER OF AO               856  EXCHANGE OVERLAP TOL        (T3) 10**   -8
 N. OF ELECTRONS PER CELL   264  EXCHANGE PSEUDO OVP (F(G))  (T4) 10**   -8
 CORE ELECTRONS PER CELL      0  EXCHANGE PSEUDO OVP (P(G))  (T5) 10**  -16
 N. OF SYMMETRY OPERATORS     8  POLE ORDER IN MONO ZONE                  4
 *******************************************************************************
 TYPE OF CALCULATION :  UNRESTRICTED OPEN SHELL
 KOHN-SHAM HAMILTONIAN

 (EXCHANGE)[CORRELATION] FUNCTIONAL:(PERDEW-BURKE-ERNZERHOF)[PERDEW-BURKE-ERNZERHOF]


 HYBRID EXCHANGE - PERCENTAGE OF FOCK EXCHANGE    25.0000

 SPIN POLARIZED DFT SELECTED
 CORE  PSEUDO POTENTIAL         TOL. ON PSEUDO              (TP) 10**- 6

 CAPPA:IS1  5;IS2  5;IS3  4; K PTS MONK NET  27; SYMMOPS:K SPACE   8;G SPACE   8

 *******************************************************************************
 MAX NUMBER OF SCF CYCLES     200  CONVERGENCE ON DELTAP        10**-19
 WEIGHT OF F(I) IN F(I+1)      30% CONVERGENCE ON ENERGY        10**- 9
 SHRINK. FACT.(MONKH.)    5  5  4  NUMBER OF K POINTS IN THE IBZ     27
 SHRINKING FACTOR(GILAT NET)   10  NUMBER OF K POINTS(GILAT NET)    180
 *******************************************************************************
 *** K POINTS COORDINATES (OBLIQUE COORDINATES IN UNITS OF IS =  5)
   1-R(  0  0  0)   2-C(  1  0  0)   3-C(  2  0  0)   4-C(  0  1  0)
   5-C(  1  1  0)   6-C(  2  1  0)   7-C(  0  2  0)   8-C(  1  2  0)
   9-C(  2  2  0)  10-C(  0  0  1)  11-C(  1  0  1)  12-C(  2  0  1)
  13-C(  0  1  1)  14-C(  1  1  1)  15-C(  2  1  1)  16-C(  0  2  1)
  17-C(  1  2  1)  18-C(  2  2  1)  19-R(  0  0  2)  20-C(  1  0  2)
  21-C(  2  0  2)  22-C(  0  1  2)  23-C(  1  1  2)  24-C(  2  1  2)
  25-C(  0  2  2)  26-C(  1  2  2)  27-C(  2  2  2)

 DIRECT LATTICE VECTORS COMPON. (A.U.)     RECIP. LATTICE VECTORS COMPON. (A.U.) 
        X            Y            Z              X            Y            Z
  -14.8451216  -14.8451216    0.0000000     -0.2116246   -0.2116246    0.0000000
   14.8451216  -14.8451216    0.0000000      0.2116246   -0.2116246    0.0000000
    0.0000000    0.0000000    6.4889416      0.0000000    0.0000000    0.9682912

 DISK SPACE FOR EIGENVECTORS (FTN 10)    38102272 REALS

 SYMMETRY ADAPTION OF THE BLOCH FUNCTIONS ENABLED
 TTTTTTTTTTTTTTTTTTTTTTTTTTTTTT gordsh1     TELAPSE        1.95 TCPU        0.11

 MATRIX SIZE: P(G) 4556392, F(G)  814192, P(G) IRR  366398, F(G) IRR  142217
 MAX G-VECTOR INDEX FOR 1- AND 2-ELECTRON INTEGRALS  75

 TTTTTTTTTTTTTTTTTTTTTTTTTTTTTT INPUT       TELAPSE        2.04 TCPU        0.19

 NEIGHBORS OF THE NON-EQUIVALENT ATOMS

 N = NUMBER OF NEIGHBORS AT DISTANCE R
    ATOM  N     R/ANG      R/AU   NEIGHBORS (ATOM LABELS AND CELL INDICES)
   1 CU   4     1.9639     3.7113    9 O    0 1 0   15 O    0 0 0   17 O    0 0 0
                                    20 O    0 1 0
   1 CU   8     3.2652     6.1704   25 SR  -1 0 0   25 SR  -1 0-1   28 SR   0 1 0
                                    28 SR   0 1-1   30 SR   0 0 0   30 SR   0 0-1
                                    31 SR   0 0 0   31 SR   0 0-1
   1 CU   2     3.4338     6.4889    1 CU   0 0-1    1 CU   0 0 1
   1 CU   4     3.9278     7.4226    2 CU  -1 0 0    4 CU   0 1 0    5 CU  -1 1 0
                                     7 CU   0 0 0
   1 CU   8     3.9558     7.4753    9 O    0 1 1    9 O    0 1-1   15 O    0 0 1
                                    15 O    0 0-1   17 O    0 0-1   17 O    0 0 1
                                    20 O    0 1-1   20 O    0 1 1
   1 CU   8     4.3915     8.2987   10 O   -1 0 0   12 O    0 1 0   14 O    0 1 0
                                    16 O    0 0 0   21 O   -1 1 0   22 O    0 0 0
                                    23 O    0 0 0   24 O    0 1 0

   2 CU   4     1.9639     3.7113   10 O    0 0 0   16 O    1 0 0   17 O    1 0 0
                                    18 O    0 0 0
   2 CU   8     3.2652     6.1704   25 SR   0 0 0   25 SR   0 0-1   26 SR   0 0 0
                                    26 SR   0 0-1   31 SR   1 0 0   31 SR   1 0-1
                                    32 SR   0 0 0   32 SR   0 0-1
   2 CU   2     3.4338     6.4889    2 CU   0 0-1    2 CU   0 0 1
   2 CU   4     3.9278     7.4226    1 CU   1 0 0    3 CU   0 0 0    6 CU   0 0 0
                                     8 CU   1 0 0
   2 CU   8     3.9558     7.4753   10 O    0 0 1   10 O    0 0-1   16 O    1 0 1
                                    16 O    1 0-1   17 O    1 0-1   17 O    1 0 1
                                    18 O    0 0-1   18 O    0 0 1
   2 CU   8     4.3915     8.2987    9 O    1 1 0   11 O    0 0 0   13 O    0 0 0
                                    15 O    1 0 0   21 O    0 1 0   22 O    0 0 0
                                    23 O    1 0 0   24 O    1 0 0

   3 CU   4     1.9639     3.7113   11 O    0 0 0   13 O    0 0 0   18 O    0 0 0
                                    19 O    0 0 0
   3 CU   8     3.2652     6.1704   26 SR   0 0 0   26 SR   0 0-1   27 SR   0 0 0
                                    27 SR   0 0-1   29 SR   0 0 0   29 SR   0 0-1
                                    32 SR   0 0 0   32 SR   0 0-1
   3 CU   2     3.4338     6.4889    3 CU   0 0-1    3 CU   0 0 1
   3 CU   4     3.9278     7.4226    2 CU   0 0 0    4 CU   0 0 0    5 CU   0 0 0
                                     7 CU   0 0 0
   3 CU   8     3.9558     7.4753   11 O    0 0 1   11 O    0 0-1   13 O    0 0-1
                                    13 O    0 0 1   18 O    0 0-1   18 O    0 0 1
                                    19 O    0 0 1   19 O    0 0-1
   3 CU   8     4.3915     8.2987   10 O    0 0 0   12 O    0 0 0   14 O    0 0 0
                                    16 O    1 0 0   21 O    0 0 0   22 O    0 0 0
                                    23 O    0 0 0   24 O    1 0 0

   4 CU   4     1.9639     3.7113   12 O    0 0 0   14 O    0 0 0   19 O    0 0 0
                                    20 O    0 0 0
   4 CU   8     3.2652     6.1704   27 SR   0 0 0   27 SR   0 0-1   28 SR   0 0 0
                                    28 SR   0 0-1   29 SR   0 0 0   29 SR   0 0-1
                                    30 SR   0-1 0   30 SR   0-1-1
   4 CU   2     3.4338     6.4889    4 CU   0 0-1    4 CU   0 0 1
   4 CU   4     3.9279     7.4226    1 CU   0-1 0    3 CU   0 0 0    6 CU   0-1 0
                                     8 CU   0 0 0
   4 CU   8     3.9558     7.4753   12 O    0 0 1   12 O    0 0-1   14 O    0 0-1
                                    14 O    0 0 1   19 O    0 0-1   19 O    0 0 1
                                    20 O    0 0 1   20 O    0 0-1
   4 CU   8     4.3915     8.2987    9 O    0 0 0   11 O    0 0 0   13 O    0 0 0
                                    15 O    0-1 0   21 O    0 0 0   22 O    0-1 0
                                    23 O    0 0 0   24 O    0 0 0

   9 O    2     1.9639     3.7113    1 CU   0-1 0    5 CU  -1 0 0
   9 O    4     2.6086     4.9295   25 SR  -1-1 0   25 SR  -1-1-1   28 SR   0 0 0
                                    28 SR   0 0-1
   9 O    4     2.7774     5.2485   17 O    0-1 0   20 O    0 0 0   21 O   -1 0 0
                                    24 O    0 0 0
   9 O    2     3.4338     6.4889    9 O    0 0-1    9 O    0 0 1
   9 O    4     3.9279     7.4226   10 O   -1-1 0   12 O    0 0 0   13 O   -1 0 0
                                    15 O    0-1 0
   9 O    4     3.9558     7.4753    1 CU   0-1-1    1 CU   0-1 1    5 CU  -1 0-1
                                     5 CU  -1 0 1

  11 O    2     1.9639     3.7113    3 CU   0 0 0    7 CU   0 0 0
  11 O    4     2.6086     4.9295   26 SR   0 0 0   26 SR   0 0-1   27 SR   0 0 0
                                    27 SR   0 0-1
  11 O    4     2.7774     5.2485   18 O    0 0 0   19 O    0 0 0   22 O    0 0 0
                                    23 O    0 0 0
  11 O    2     3.4338     6.4889   11 O    0 0-1   11 O    0 0 1
  11 O    4     3.9278     7.4226   10 O    0 0 0   12 O    0 0 0   13 O    0 0 0
                                    15 O    0 0 0
  11 O    4     3.9558     7.4753    3 CU   0 0-1    3 CU   0 0 1    7 CU   0 0 1
                                     7 CU   0 0-1

  13 O    2     1.9639     3.7113    3 CU   0 0 0    5 CU   0 0 0
  13 O    4     2.6086     4.9295   29 SR   0 0 0   29 SR   0 0-1   32 SR   0 0 0
                                    32 SR   0 0-1
  13 O    4     2.7774     5.2485   18 O    0 0 0   19 O    0 0 0   21 O    0 0 0
                                    24 O    1 0 0
  13 O    2     3.4338     6.4889   13 O    0 0-1   13 O    0 0 1
  13 O    4     3.9278     7.4226    9 O    1 0 0   11 O    0 0 0   14 O    0 0 0
                                    16 O    1 0 0
  13 O    4     3.9558     7.4753    3 CU   0 0 1    3 CU   0 0-1    5 CU   0 0-1
                                     5 CU   0 0 1

  14 O    2     1.9639     3.7113    4 CU   0 0 0    6 CU   0-1 0
  14 O    4     2.6086     4.9295   29 SR   0 0 0   29 SR   0 0-1   30 SR   0-1 0
                                    30 SR   0-1-1
  14 O    4     2.7774     5.2485   19 O    0 0 0   20 O    0 0 0   21 O    0 0 0
                                    22 O    0-1 0
  14 O    2     3.4338     6.4889   14 O    0 0-1   14 O    0 0 1
  14 O    4     3.9278     7.4226   10 O    0-1 0   12 O    0 0 0   13 O    0 0 0
                                    15 O    0-1 0
  14 O    4     3.9558     7.4753    4 CU   0 0 1    4 CU   0 0-1    6 CU   0-1-1
                                     6 CU   0-1 1

  25 SR   8     2.6086     4.9295    9 O    1 1 0    9 O    1 1 1   10 O    0 0 0
                                    10 O    0 0 1   17 O    1 0 1   17 O    1 0 0
                                    21 O    0 1 1   21 O    0 1 0
  25 SR   8     3.2652     6.1704    1 CU   1 0 0    1 CU   1 0 1    2 CU   0 0 0
                                     2 CU   0 0 1    5 CU   0 1 0    5 CU   0 1 1
                                     6 CU   0 0 0    6 CU   0 0 1
  25 SR   2     3.4338     6.4889   25 SR   0 0-1   25 SR   0 0 1
  25 SR   4     3.9278     7.4226   26 SR   0 0 0   28 SR   1 1 0   29 SR   0 1 0
                                    31 SR   1 0 0
  25 SR  16     4.7152     8.9104   13 O    0 1 0   13 O    0 1 1   14 O    0 1 0
                                    14 O    0 1 1   15 O    1 0 0   15 O    1 0 1
                                    16 O    1 0 0   16 O    1 0 1   18 O    0 0 1
                                    18 O    0 0 0   20 O    1 1 1   20 O    1 1 0
                                    22 O    0 0 1   22 O    0 0 0   24 O    1 1 1
                                    24 O    1 1 0
  25 SR   8     5.2172     9.8590   26 SR   0 0 1   26 SR   0 0-1   28 SR   1 1 1
                                    28 SR   1 1-1   29 SR   0 1-1   29 SR   0 1 1
                                    31 SR   1 0-1   31 SR   1 0 1

  26 SR   8     2.6086     4.9295   10 O    0 0 0   10 O    0 0 1   11 O    0 0 0
                                    11 O    0 0 1   18 O    0 0 1   18 O    0 0 0
                                    22 O    0 0 1   22 O    0 0 0
  26 SR   8     3.2652     6.1704    2 CU   0 0 0    2 CU   0 0 1    3 CU   0 0 0
                                     3 CU   0 0 1    6 CU   0 0 0    6 CU   0 0 1
                                     7 CU   0 0 0    7 CU   0 0 1
  26 SR   2     3.4338     6.4889   26 SR   0 0-1   26 SR   0 0 1
  26 SR   4     3.9278     7.4226   25 SR   0 0 0   27 SR   0 0 0   30 SR   0 0 0
                                    32 SR   0 0 0
  26 SR  16     4.7152     8.9104   13 O    0 0 0   13 O    0 0 1   14 O    0 1 0
                                    14 O    0 1 1   15 O    0 0 0   15 O    0 0 1
                                    16 O    1 0 0   16 O    1 0 1   17 O    1 0 1
                                    17 O    1 0 0   19 O    0 0 1   19 O    0 0 0
                                    21 O    0 1 1   21 O    0 1 0   23 O    0 0 1
                                    23 O    0 0 0
  26 SR   8     5.2172     9.8590   25 SR   0 0-1   25 SR   0 0 1   27 SR   0 0 1
                                    27 SR   0 0-1   30 SR   0 0 1   30 SR   0 0-1
                                    32 SR   0 0 1   32 SR   0 0-1

  27 SR   8     2.6086     4.9295   11 O    0 0 0   11 O    0 0 1   12 O    0 0 0
                                    12 O    0 0 1   19 O    0 0 1   19 O    0 0 0
                                    23 O    0 0 1   23 O    0 0 0
  27 SR   8     3.2652     6.1704    3 CU   0 0 0    3 CU   0 0 1    4 CU   0 0 0
                                     4 CU   0 0 1    7 CU   0 0 0    7 CU   0 0 1
                                     8 CU   0 0 0    8 CU   0 0 1
  27 SR   2     3.4338     6.4889   27 SR   0 0-1   27 SR   0 0 1
  27 SR   4     3.9278     7.4226   26 SR   0 0 0   28 SR   0 0 0   29 SR   0 0 0
                                    31 SR   0 0 0
  27 SR  16     4.7152     8.9104   13 O    0 0 0   13 O    0 0 1   14 O    0 0 0
                                    14 O    0 0 1   15 O    0 0 0   15 O    0 0 1
                                    16 O    0 0 0   16 O    0 0 1   18 O    0 0 1
                                    18 O    0 0 0   20 O    0 0 1   20 O    0 0 0
                                    22 O    0 0 1   22 O    0 0 0   24 O    0 0 1
                                    24 O    0 0 0
  27 SR   8     5.2172     9.8590   26 SR   0 0-1   26 SR   0 0 1   28 SR   0 0 1
                                    28 SR   0 0-1   29 SR   0 0-1   29 SR   0 0 1
                                    31 SR   0 0 1   31 SR   0 0-1

  30 SR   8     2.6086     4.9295   14 O    0 1 0   14 O    0 1 1   15 O    0 0 0
                                    15 O    0 0 1   20 O    0 1 1   20 O    0 1 0
                                    22 O    0 0 1   22 O    0 0 0
  30 SR   8     3.2652     6.1704    1 CU   0 0 0    1 CU   0 0 1    4 CU   0 1 0
                                     4 CU   0 1 1    6 CU   0 0 0    6 CU   0 0 1
                                     7 CU   0 0 0    7 CU   0 0 1
  30 SR   2     3.4338     6.4889   30 SR   0 0-1   30 SR   0 0 1
  30 SR   4     3.9278     7.4226   26 SR   0 0 0   28 SR   0 1 0   29 SR   0 1 0
                                    31 SR   0 0 0
  30 SR  16     4.7152     8.9104    9 O    0 1 0    9 O    0 1 1   10 O    0 0 0
                                    10 O    0 0 1   11 O    0 0 0   11 O    0 0 1
                                    12 O    0 1 0   12 O    0 1 1   17 O    0 0 1
                                    17 O    0 0 0   19 O    0 1 1   19 O    0 1 0
                                    21 O    0 1 1   21 O    0 1 0   23 O    0 0 1
                                    23 O    0 0 0
  30 SR   8     5.2172     9.8590   26 SR   0 0-1   26 SR   0 0 1   28 SR   0 1-1
                                    28 SR   0 1 1   29 SR   0 1 1   29 SR   0 1-1
                                    31 SR   0 0 1   31 SR   0 0-1

  32 SR   8     2.6086     4.9295   13 O    0 0 0   13 O    0 0 1   16 O    1 0 0
                                    16 O    1 0 1   18 O    0 0 1   18 O    0 0 0
                                    24 O    1 0 1   24 O    1 0 0
  32 SR   8     3.2652     6.1704    2 CU   0 0 0    2 CU   0 0 1    3 CU   0 0 0
                                     3 CU   0 0 1    5 CU   0 0 0    5 CU   0 0 1
                                     8 CU   1 0 0    8 CU   1 0 1
  32 SR   2     3.4338     6.4889   32 SR   0 0-1   32 SR   0 0 1
  32 SR   4     3.9278     7.4226   26 SR   0 0 0   28 SR   1 0 0   29 SR   0 0 0
                                    31 SR   1 0 0
  32 SR  16     4.7152     8.9104    9 O    1 0 0    9 O    1 0 1   10 O    0 0 0
                                    10 O    0 0 1   11 O    0 0 0   11 O    0 0 1
                                    12 O    1 0 0   12 O    1 0 1   17 O    1 0 1
                                    17 O    1 0 0   19 O    0 0 1   19 O    0 0 0
                                    21 O    0 0 1   21 O    0 0 0   23 O    1 0 1
                                    23 O    1 0 0
  32 SR   8     5.2172     9.8590   26 SR   0 0-1   26 SR   0 0 1   28 SR   1 0-1
                                    28 SR   1 0 1   29 SR   0 0 1   29 SR   0 0-1
                                    31 SR   1 0 1   31 SR   1 0-1


 SYMMETRY ALLOWED INTERNAL DEGREE(S) OF FREEDOM:  14
 TTTTTTTTTTTTTTTTTTTTTTTTTTTTTT SYMM        TELAPSE        2.47 TCPU        0.57
 TTTTTTTTTTTTTTTTTTTTTTTTTTTTTT INT_SCREEN  TELAPSE        2.50 TCPU        0.59
 INFORMATION **** EXCBUF **** EXCH. BIPO BUFFER: WORDS USED =    10000000
 WARNING **** EXCBUF **** EXCH. BIPO BUFFER TOO SMALL - TO AVOID I/O SET EXCHSIZE =    14658570
[golub229:94766] 23 more processes have sent help message help-mpi-btl-base.txt / btl:no-nics
[golub229:94766] Set MCA parameter "orte_base_help_aggregate" to 0 to see all help / error messages

 DFT PARAMETERS

     ATOM       ELECTRONS   NET CHARGE   R(ANGSTROM)
   1 229  CU     17.0000      2.0000     0.73000000
   9 208  O       8.0000     -2.0000     1.40000000
  25 238  SR      0.0000      2.0000     1.18000000

 SIZE OF GRID=      94010
 TTTTTTTTTTTTTTTTTTTTTTTTTTTTTT MAKE_GRID2  TELAPSE       12.81 TCPU        3.92
 BECKE WEIGHT FUNCTION
 RADSAFE =     2.00
 TOLERANCES - DENSITY:10**- 6; POTENTIAL:10**- 9; GRID WGT:10**-14

 RADIAL INTEGRATION  - INTERVALS (POINTS,UPPER LIMIT):            1( 75,  4.0*R)

 ANGULAR INTEGRATION - INTERVALS (ACCURACY LEVEL [N. POINTS] UPPER LIMIT):
  1(  4[  86]   0.2)  2(  8[ 194]   0.5)  3( 12[ 350]   0.9)  4( 16[ 974]   3.5)
  5( 12[ 350]9999.0)
 TTTTTTTTTTTTTTTTTTTTTTTTTTTTTT INT_CALC    TELAPSE       12.85 TCPU        3.95
 EEEEEEEEEE INT_CALC TERMINATION  DATE 28 05 2018 TIME 13:36:40.8

 *******************************************************************************
 Generated by CrystalWriter                                                      
 CRYSTAL - SCF - TYPE OF CALCULATION :  UNRESTRICTED OPEN SHELL
 *******************************************************************************

 CAPPA:IS1  5;IS2  5;IS3  4; K PTS MONK NET  27; SYMMOPS:K SPACE   8;G SPACE   8

 TTTTTTTTTTTTTTTTTTTTTTTTTTTTTT SDIK        TELAPSE       15.34 TCPU        4.86

 AAAAAAAAAAAAAAAAAAAAAAAAAAAAAAAAAAAAAAAAAAAAAAAAAAAAAAAAAAAAAAAAAAAAAAAAAAAAAAA
         ATOMIC WAVEFUNCTION(S)


 NUCLEAR CHARGE 19.0  SYMMETRY SPECIES            S    P    D
 N. ELECTRONS   17.0  NUMBER OF PRIMITIVE GTOS   22    9   12
                      NUMBER OF CONTRACTED GTOS   4    3    3
                      NUMBER OF CLOSED SHELLS     1    1    0
                      OPEN SHELL OCCUPATION       0    0    9

  ZNUC SCFIT  TOTAL HF ENERGY   KINETIC ENERGY   VIRIAL THEOREM ACCURACY
  19.0  23   -1.952746998E+02  1.243259046E+02 -2.570667838E+00  4.0E-06

 NUCLEAR CHARGE  6.0  SYMMETRY SPECIES            S    P
 N. ELECTRONS    8.0  NUMBER OF PRIMITIVE GTOS   12   12
                      NUMBER OF CONTRACTED GTOS   3    3
                      NUMBER OF CLOSED SHELLS     1    1
                      OPEN SHELL OCCUPATION       0    0

  ZNUC SCFIT  TOTAL HF ENERGY   KINETIC ENERGY   VIRIAL THEOREM ACCURACY
   6.0  44   -1.521530848E+01  1.226941556E+01 -2.240100508E+00  4.6E-06

 AAAAAAAAAAAAAAAAAAAAAAAAAAAAAAAAAAAAAAAAAAAAAAAAAAAAAAAAAAAAAAAAAAAAAAAAAAAAAAA

 CHARGE NORMALIZATION FACTOR   1.00000000
 TOTAL ATOMIC CHARGES:
  17.0000000  17.0000000  17.0000000  17.0000000  17.0000000  17.0000000
  17.0000000  17.0000000   8.0000000   8.0000000   8.0000000   8.0000000
   8.0000000   8.0000000   8.0000000   8.0000000   8.0000000   8.0000000
   8.0000000   8.0000000   8.0000000   8.0000000   8.0000000   8.0000000
   0.0000000   0.0000000   0.0000000   0.0000000   0.0000000   0.0000000
   0.0000000   0.0000000
 SUMMED SPIN DENSITY           0.00000000
 TOTAL ATOMIC SPINS  :
   1.0000000  -1.0000000   1.0000000  -1.0000000  -1.0000000   1.0000000
  -1.0000000   1.0000000   0.0000000   0.0000000   0.0000000   0.0000000
   0.0000000   0.0000000   0.0000000   0.0000000   0.0000000   0.0000000
   0.0000000   0.0000000   0.0000000   0.0000000   0.0000000   0.0000000
   0.0000000   0.0000000   0.0000000   0.0000000   0.0000000   0.0000000
   0.0000000   0.0000000
 TTTTTTTTTTTTTTTTTTTTTTTTTTTTTT MOQGAD      TELAPSE       15.85 TCPU        5.36
 TTTTTTTTTTTTTTTTTTTTTTTTTTTTTT SHELLXN     TELAPSE      705.43 TCPU      691.92
 TTTTTTTTTTTTTTTTTTTTTTTTTTTTTT MONMO3      TELAPSE      744.09 TCPU      726.29
 NUMERICALLY INTEGRATED DENSITY    132.0000116988    132.0000116986
 TTTTTTTTTTTTTTTTTTTTTTTTTTTTTT NUMDFT      TELAPSE      746.52 TCPU      728.69
 CYC   0 ETOT(AU) -1.840551175701E+03 DETOT -1.84E+03 tst  0.00E+00 PX  1.00E+00
 CYCLE  0 WAVE FUNCTION SAVED IN FORTRAN UNIT 79
 TTTTTTTTTTTTTTTTTTTTTTTTTTTTTT DIIS        TELAPSE      762.47 TCPU      739.04
 TTTTTTTTTTTTTTTTTTTTTTTTTTTTTT FDIK        TELAPSE      790.65 TCPU      766.63
 SPIN LOCKING: NO ENERGY GAP COMPUTED
 TTTTTTTTTTTTTTTTTTTTTTTTTTTTTT PDIG        TELAPSE      795.40 TCPU      768.09
 CHARGE NORMALIZATION FACTOR   1.00000000
 TOTAL ATOMIC CHARGES:
  18.8173102  18.8173115  18.8173114  18.8173113  18.8173115  18.8173102
  18.8173113  18.8173114   6.6877917   6.6877917   6.6877917   6.6877917
   6.6877911   6.6877911   6.6877911   6.6877911   6.6877917   6.6877911
   6.6877917   6.6877911   6.6877917   6.6877911   6.6877917   6.6877911
   0.8071359   0.8070761   0.8071361   0.8070761   0.8070761   0.8071350
   0.8070761   0.8071377
 SUMMED SPIN DENSITY          -0.00000000
 TOTAL ATOMIC SPINS  :
   0.3463079  -0.3463081   0.3463080  -0.3463080  -0.3463081   0.3463079
  -0.3463080   0.3463080   0.0000001   0.0000001  -0.0000001  -0.0000001
   0.0000001   0.0000000   0.0000000   0.0000001   0.0000001   0.0000001
  -0.0000001   0.0000000   0.0000001   0.0000000  -0.0000001   0.0000001
  -0.0000224   0.0000224  -0.0000224   0.0000224   0.0000224  -0.0000224
   0.0000224  -0.0000224
 TTTTTTTTTTTTTTTTTTTTTTTTTTTTTT MOQGAD      TELAPSE      795.57 TCPU      768.25
 TTTTTTTTTTTTTTTTTTTTTTTTTTTTTT SHELLXN     TELAPSE     1528.87 TCPU     1496.63
 TTTTTTTTTTTTTTTTTTTTTTTTTTTTTT MONMO3      TELAPSE     1570.11 TCPU     1537.90
 NUMERICALLY INTEGRATED DENSITY    131.9999199489    131.9999199359
 TTTTTTTTTTTTTTTTTTTTTTTTTTTTTT NUMDFT      TELAPSE     1576.55 TCPU     1544.35
 CYC   1 ETOT(AU) -1.841948849275E+03 DETOT -1.40E+00 tst  0.00E+00 PX  1.00E+00
 CYCLE  1 WAVE FUNCTION SAVED IN FORTRAN UNIT 79
 TTTTTTTTTTTTTTTTTTTTTTTTTTTTTT DIIS        TELAPSE     1590.11 TCPU     1548.28
 DIIS TEST: 0.47487E+00 AT SCF   CYCLE   1 - MIX   30 %
 TTTTTTTTTTTTTTTTTTTTTTTTTTTTTT FDIK        TELAPSE     1604.71 TCPU     1560.88
 SPIN LOCKING: NO ENERGY GAP COMPUTED
 TTTTTTTTTTTTTTTTTTTTTTTTTTTTTT PDIG        TELAPSE     1605.67 TCPU     1561.85
 CHARGE NORMALIZATION FACTOR   1.00000000
 TOTAL ATOMIC CHARGES:
  18.6850511  18.6850372  18.6850522  18.6850371  18.6850372  18.6850511
  18.6850371  18.6850522   6.6944428   6.6944428   6.6944425   6.6944425
   6.6944834   6.6944834   6.6944834   6.6944834   6.6944428   6.6944834
   6.6944425   6.6944834   6.6944428   6.6944834   6.6944425   6.6944834
   0.9260460   0.9260129   0.9260468   0.9260129   0.9260129   0.9260450
   0.9260129   0.9260473
 SUMMED SPIN DENSITY          -0.00000000
 TOTAL ATOMIC SPINS  :
   0.4458024  -0.4459546   0.4458021  -0.4459541  -0.4459546   0.4458024
  -0.4459541   0.4458021   0.0000025   0.0000025   0.0000024   0.0000024
   0.0000226   0.0000229   0.0000229   0.0000226   0.0000025   0.0000226
   0.0000024   0.0000229   0.0000025   0.0000229   0.0000024   0.0000226
  -0.0000333   0.0001422  -0.0000329   0.0001422   0.0001422  -0.0000482
   0.0001422  -0.0000473
 TTTTTTTTTTTTTTTTTTTTTTTTTTTTTT MOQGAD      TELAPSE     1605.75 TCPU     1561.92
 TTTTTTTTTTTTTTTTTTTTTTTTTTTTTT SHELLXN     TELAPSE     2341.95 TCPU     2291.59
 TTTTTTTTTTTTTTTTTTTTTTTTTTTTTT MONMO3      TELAPSE     2385.54 TCPU     2335.20
 NUMERICALLY INTEGRATED DENSITY    131.9998769763    131.9998770180
 TTTTTTTTTTTTTTTTTTTTTTTTTTTTTT NUMDFT      TELAPSE     2391.74 TCPU     2341.41
 CYC   2 ETOT(AU) -1.842021991101E+03 DETOT -7.31E-02 tst  2.20E-03 PX  1.70E-01
 CYCLE  2 WAVE FUNCTION SAVED IN FORTRAN UNIT 79
 TTTTTTTTTTTTTTTTTTTTTTTTTTTTTT DIIS        TELAPSE     2404.88 TCPU     2347.14
 DIIS TEST: 0.40675E+00 AT SCF   CYCLE   2 - DIIS ACTIVE - HISTORY:     2 CYCLES
 TTTTTTTTTTTTTTTTTTTTTTTTTTTTTT FDIK        TELAPSE     2414.45 TCPU     2351.37
 SPIN LOCKING: NO ENERGY GAP COMPUTED
 TTTTTTTTTTTTTTTTTTTTTTTTTTTTTT PDIG        TELAPSE     2415.60 TCPU     2352.52
 CHARGE NORMALIZATION FACTOR   1.00000000
 TOTAL ATOMIC CHARGES:
  18.7393305  18.7395181  18.7393313  18.7395177  18.7395181  18.7393305
  18.7395177  18.7393313   6.6640351   6.6640351   6.6640351   6.6640351
   6.6640139   6.6640139   6.6640139   6.6640139   6.6640351   6.6640139
   6.6640351   6.6640139   6.6640351   6.6640139   6.6640351   6.6640139
   0.9325108   0.9325303   0.9325114   0.9325303   0.9325303   0.9325335
   0.9325303   0.9325358
 SUMMED SPIN DENSITY          -0.00000000
 TOTAL ATOMIC SPINS  :
   0.4353428  -0.4355001   0.4353429  -0.4354998  -0.4355001   0.4353428
  -0.4354998   0.4353429   0.0000507   0.0000507   0.0000505   0.0000505
   0.0000527   0.0000528   0.0000528   0.0000527   0.0000507   0.0000527
   0.0000505   0.0000528   0.0000507   0.0000528   0.0000505   0.0000527
   0.0000210  -0.0000505   0.0000216  -0.0000505  -0.0000505  -0.0000199
  -0.0000505  -0.0000193
 TTTTTTTTTTTTTTTTTTTTTTTTTTTTTT MOQGAD      TELAPSE     2415.68 TCPU     2352.60
 TTTTTTTTTTTTTTTTTTTTTTTTTTTTTT SHELLXN     TELAPSE     3150.53 TCPU     3082.32
 TTTTTTTTTTTTTTTTTTTTTTTTTTTTTT MONMO3      TELAPSE     3189.16 TCPU     3120.98
 NUMERICALLY INTEGRATED DENSITY    131.9998809892    131.9998809899
 TTTTTTTTTTTTTTTTTTTTTTTTTTTTTT NUMDFT      TELAPSE     3195.46 TCPU     3127.29
 CYC   3 ETOT(AU) -1.842055261564E+03 DETOT -3.33E-02 tst  5.03E-04 PX  6.00E-02
 CYCLE  3 WAVE FUNCTION SAVED IN FORTRAN UNIT 79
 TTTTTTTTTTTTTTTTTTTTTTTTTTTTTT DIIS        TELAPSE     3207.83 TCPU     3129.97
 DIIS TEST: 0.20175E+00 AT SCF   CYCLE   3 - DIIS ACTIVE - HISTORY:     3 CYCLES
 TTTTTTTTTTTTTTTTTTTTTTTTTTTTTT FDIK        TELAPSE     3220.45 TCPU     3137.81
 SPIN LOCKING: NO ENERGY GAP COMPUTED
 TTTTTTTTTTTTTTTTTTTTTTTTTTTTTT PDIG        TELAPSE     3221.48 TCPU     3138.84
 CHARGE NORMALIZATION FACTOR   1.00000000
 TOTAL ATOMIC CHARGES:
  18.6618882  18.6617783  18.6618886  18.6617778  18.6617783  18.6618882
  18.6617778  18.6618886   6.7174970   6.7174970   6.7174967   6.7174967
   6.7174869   6.7174872   6.7174872   6.7174869   6.7174970   6.7174869
   6.7174967   6.7174872   6.7174970   6.7174872   6.7174967   6.7174869
   0.9032138   0.9031479   0.9032150   0.9031479   0.9031479   0.9032200
   0.9031479   0.9032228
 SUMMED SPIN DENSITY          -0.00000000
 TOTAL ATOMIC SPINS  :
   0.5033850  -0.5034619   0.5033854  -0.5034617  -0.5034619   0.5033850
  -0.5034617   0.5033854   0.0000382   0.0000382   0.0000377   0.0000377
   0.0000079   0.0000082   0.0000082   0.0000079   0.0000382   0.0000079
   0.0000377   0.0000082   0.0000382   0.0000082   0.0000377   0.0000079
  -0.0000464   0.0000060  -0.0000458   0.0000060   0.0000060   0.0000030
   0.0000060   0.0000035
 TTTTTTTTTTTTTTTTTTTTTTTTTTTTTT MOQGAD      TELAPSE     3221.56 TCPU     3138.92
 TTTTTTTTTTTTTTTTTTTTTTTTTTTTTT SHELLXN     TELAPSE     3957.49 TCPU     3867.13
 TTTTTTTTTTTTTTTTTTTTTTTTTTTTTT MONMO3      TELAPSE     3993.28 TCPU     3902.95
 NUMERICALLY INTEGRATED DENSITY    131.9998790652    131.9998790414
 TTTTTTTTTTTTTTTTTTTTTTTTTTTTTT NUMDFT      TELAPSE     3999.52 TCPU     3909.18
 CYC   4 ETOT(AU) -1.842075353581E+03 DETOT -2.01E-02 tst  1.14E-03 PX  7.67E-02
 CYCLE  4 WAVE FUNCTION SAVED IN FORTRAN UNIT 79
 TTTTTTTTTTTTTTTTTTTTTTTTTTTTTT DIIS        TELAPSE     4009.97 TCPU     3912.43
 DIIS TEST: 0.10595E+00 AT SCF   CYCLE   4 - DIIS ACTIVE - HISTORY:     4 CYCLES
 TTTTTTTTTTTTTTTTTTTTTTTTTTTTTT FDIK        TELAPSE     4025.14 TCPU     3916.38
 SPIN LOCKING: NO ENERGY GAP COMPUTED
 TTTTTTTTTTTTTTTTTTTTTTTTTTTTTT PDIG        TELAPSE     4026.22 TCPU     3917.47
 CHARGE NORMALIZATION FACTOR   1.00000000
 TOTAL ATOMIC CHARGES:
  18.6889690  18.6890934  18.6889697  18.6890931  18.6890934  18.6889690
  18.6890931  18.6889697   6.6956370   6.6956370   6.6956373   6.6956373
   6.6956354   6.6956348   6.6956348   6.6956354   6.6956370   6.6956354
   6.6956373   6.6956348   6.6956370   6.6956348   6.6956373   6.6956354
   0.9197088   0.9196841   0.9197092   0.9196841   0.9196841   0.9197078
   0.9196841   0.9197096
 SUMMED SPIN DENSITY          -0.00000000
 TOTAL ATOMIC SPINS  :
   0.5157437  -0.5156955   0.5157442  -0.5156954  -0.5156955   0.5157437
  -0.5156954   0.5157442  -0.0000124  -0.0000124  -0.0000121  -0.0000121
  -0.0000164  -0.0000168  -0.0000168  -0.0000164  -0.0000124  -0.0000164
  -0.0000121  -0.0000168  -0.0000124  -0.0000168  -0.0000121  -0.0000164
  -0.0000010   0.0000081  -0.0000012   0.0000081   0.0000081   0.0000039
   0.0000081   0.0000032
 TTTTTTTTTTTTTTTTTTTTTTTTTTTTTT MOQGAD      TELAPSE     4026.30 TCPU     3917.54
 TTTTTTTTTTTTTTTTTTTTTTTTTTTTTT SHELLXN     TELAPSE     4759.73 TCPU     4646.29
 TTTTTTTTTTTTTTTTTTTTTTTTTTTTTT MONMO3      TELAPSE     4797.79 TCPU     4684.37
 NUMERICALLY INTEGRATED DENSITY    131.9998789064    131.9998788777
 TTTTTTTTTTTTTTTTTTTTTTTTTTTTTT NUMDFT      TELAPSE     4804.02 TCPU     4690.60
 CYC   5 ETOT(AU) -1.842086036661E+03 DETOT -1.07E-02 tst  2.00E-04 PX  2.70E-02
 CYCLE  5 WAVE FUNCTION SAVED IN FORTRAN UNIT 79
 TTTTTTTTTTTTTTTTTTTTTTTTTTTTTT DIIS        TELAPSE     4827.49 TCPU     4702.62
 DIIS TEST: 0.96022E-02 AT SCF   CYCLE   5 - DIIS ACTIVE - HISTORY:     5 CYCLES
 TTTTTTTTTTTTTTTTTTTTTTTTTTTTTT FDIK        TELAPSE     4838.41 TCPU     4709.29
 SPIN LOCKING: NO ENERGY GAP COMPUTED
 TTTTTTTTTTTTTTTTTTTTTTTTTTTTTT PDIG        TELAPSE     4839.50 TCPU     4710.37
 CHARGE NORMALIZATION FACTOR   1.00000000
 TOTAL ATOMIC CHARGES:
  18.6841401  18.6831700  18.6841412  18.6831697  18.6831700  18.6841401
  18.6831697  18.6841412   6.6970411   6.6970411   6.6970414   6.6970414
   6.6970398   6.6970394   6.6970394   6.6970398   6.6970411   6.6970398
   6.6970414   6.6970394   6.6970411   6.6970394   6.6970414   6.6970398
   0.9222451   0.9222820   0.9222453   0.9222820   0.9222820   0.9222455
   0.9222820   0.9222474
 SUMMED SPIN DENSITY          -0.00000000
 TOTAL ATOMIC SPINS  :
   0.5411329  -0.5415216   0.5411332  -0.5415215  -0.5415216   0.5411329
  -0.5415215   0.5411332   0.0000948   0.0000948   0.0000951   0.0000951
   0.0001001   0.0000997   0.0000997   0.0001001   0.0000948   0.0001001
   0.0000951   0.0000997   0.0000948   0.0000997   0.0000951   0.0001001
  -0.0000141   0.0000111  -0.0000144   0.0000111   0.0000111  -0.0000100
   0.0000111  -0.0000104
 TTTTTTTTTTTTTTTTTTTTTTTTTTTTTT MOQGAD      TELAPSE     4839.58 TCPU     4710.45
 TTTTTTTTTTTTTTTTTTTTTTTTTTTTTT SHELLXN     TELAPSE     5571.26 TCPU     5437.70
 TTTTTTTTTTTTTTTTTTTTTTTTTTTTTT MONMO3      TELAPSE     5608.78 TCPU     5475.24
 NUMERICALLY INTEGRATED DENSITY    131.9998809303    131.9998809049
 TTTTTTTTTTTTTTTTTTTTTTTTTTTTTT NUMDFT      TELAPSE     5615.03 TCPU     5481.49
 CYC   6 ETOT(AU) -1.842088459329E+03 DETOT -2.42E-03 tst  3.61E-04 PX  3.66E-02
 CYCLE  6 WAVE FUNCTION SAVED IN FORTRAN UNIT 79
 TTTTTTTTTTTTTTTTTTTTTTTTTTTTTT DIIS        TELAPSE     5629.74 TCPU     5491.07
 DIIS TEST: 0.71762E-03 AT SCF   CYCLE   6 - DIIS ACTIVE - HISTORY:     6 CYCLES
 TTTTTTTTTTTTTTTTTTTTTTTTTTTTTT FDIK        TELAPSE     5644.57 TCPU     5495.00
 SPIN LOCKING: NO ENERGY GAP COMPUTED
 TTTTTTTTTTTTTTTTTTTTTTTTTTTTTT PDIG        TELAPSE     5645.54 TCPU     5495.95
 CHARGE NORMALIZATION FACTOR   1.00000000
 TOTAL ATOMIC CHARGES:
  18.6823128  18.6857125  18.6823142  18.6857125  18.6857125  18.6823128
  18.6857125  18.6823142   6.6967221   6.6967221   6.6967218   6.6967218
   6.6967182   6.6967178   6.6967178   6.6967182   6.6967221   6.6967182
   6.6967218   6.6967178   6.6967221   6.6967178   6.6967218   6.6967182
   0.9225594   0.9225330   0.9225597   0.9225330   0.9225330   0.9225618
   0.9225330   0.9225639
 SUMMED SPIN DENSITY          -0.00000000
 TOTAL ATOMIC SPINS  :
   0.5493790  -0.5479835   0.5493787  -0.5479831  -0.5479835   0.5493790
  -0.5479831   0.5493787  -0.0003327  -0.0003327  -0.0003329  -0.0003329
  -0.0003310  -0.0003312  -0.0003312  -0.0003310  -0.0003327  -0.0003310
  -0.0003329  -0.0003312  -0.0003327  -0.0003312  -0.0003329  -0.0003310
  -0.0000330  -0.0000352  -0.0000330  -0.0000352  -0.0000352  -0.0000323
  -0.0000352  -0.0000321
 TTTTTTTTTTTTTTTTTTTTTTTTTTTTTT MOQGAD      TELAPSE     5645.69 TCPU     5496.09
 TTTTTTTTTTTTTTTTTTTTTTTTTTTTTT SHELLXN     TELAPSE     6379.52 TCPU     6224.98
 TTTTTTTTTTTTTTTTTTTTTTTTTTTTTT MONMO3      TELAPSE     6414.89 TCPU     6260.38
 NUMERICALLY INTEGRATED DENSITY    131.9998818118    131.9998817383
 TTTTTTTTTTTTTTTTTTTTTTTTTTTTTT NUMDFT      TELAPSE     6421.11 TCPU     6266.60
 CYC   7 ETOT(AU) -1.842088560215E+03 DETOT -1.01E-04 tst  2.16E-05 PX  8.70E-03
 CYCLE  7 WAVE FUNCTION SAVED IN FORTRAN UNIT 79
 TTTTTTTTTTTTTTTTTTTTTTTTTTTTTT DIIS        TELAPSE     6435.45 TCPU     6271.19
 DIIS TEST: 0.21707E-03 AT SCF   CYCLE   7 - DIIS ACTIVE - HISTORY:     7 CYCLES
 TTTTTTTTTTTTTTTTTTTTTTTTTTTTTT FDIK        TELAPSE     6446.00 TCPU     6278.27
 SPIN LOCKING: NO ENERGY GAP COMPUTED
 TTTTTTTTTTTTTTTTTTTTTTTTTTTTTT PDIG        TELAPSE     6447.07 TCPU     6279.35
 CHARGE NORMALIZATION FACTOR   1.00000000
 TOTAL ATOMIC CHARGES:
  18.6866947  18.6811065  18.6866958  18.6811063  18.6811065  18.6866947
  18.6811063  18.6866958   6.6967681   6.6967681   6.6967680   6.6967680
   6.6967677   6.6967676   6.6967676   6.6967677   6.6967681   6.6967677
   6.6967680   6.6967676   6.6967681   6.6967676   6.6967680   6.6967677
   0.9225647   0.9225618   0.9225651   0.9225618   0.9225618   0.9225642
   0.9225618   0.9225669
 SUMMED SPIN DENSITY          -0.00000000
 TOTAL ATOMIC SPINS  :
   0.5484292  -0.5507148   0.5484290  -0.5507142  -0.5507148   0.5484292
  -0.5507142   0.5484290   0.0005431   0.0005431   0.0005429   0.0005429
   0.0005433   0.0005430   0.0005430   0.0005433   0.0005431   0.0005433
   0.0005429   0.0005430   0.0005431   0.0005430   0.0005429   0.0005433
   0.0000571   0.0000562   0.0000572   0.0000562   0.0000562   0.0000567
   0.0000562   0.0000570
 TTTTTTTTTTTTTTTTTTTTTTTTTTTTTT MOQGAD      TELAPSE     6447.16 TCPU     6279.44
 TTTTTTTTTTTTTTTTTTTTTTTTTTTTTT SHELLXN     TELAPSE     7183.34 TCPU     7009.78
 TTTTTTTTTTTTTTTTTTTTTTTTTTTTTT MONMO3      TELAPSE     7221.31 TCPU     7047.77
 NUMERICALLY INTEGRATED DENSITY    131.9998818715    131.9998818994
 TTTTTTTTTTTTTTTTTTTTTTTTTTTTTT NUMDFT      TELAPSE     7227.53 TCPU     7053.99
 CYC   8 ETOT(AU) -1.842088532992E+03 DETOT  2.72E-05 tst  2.28E-06 PX  3.05E-03
 CYCLE  8 WAVE FUNCTION SAVED IN FORTRAN UNIT 79
 TTTTTTTTTTTTTTTTTTTTTTTTTTTTTT DIIS        TELAPSE     7242.22 TCPU     7059.60
 DIIS TEST: 0.56570E-03 AT SCF   CYCLE   8 - DIIS ACTIVE - HISTORY:     8 CYCLES
 TTTTTTTTTTTTTTTTTTTTTTTTTTTTTT FDIK        TELAPSE     7252.67 TCPU     7065.57
 SPIN LOCKING: NO ENERGY GAP COMPUTED
 TTTTTTTTTTTTTTTTTTTTTTTTTTTTTT PDIG        TELAPSE     7253.62 TCPU     7066.52
 CHARGE NORMALIZATION FACTOR   1.00000000
 TOTAL ATOMIC CHARGES:
  18.6837391  18.6838110  18.6837401  18.6838109  18.6838110  18.6837391
  18.6838109  18.6837401   6.6968436   6.6968436   6.6968436   6.6968436
   6.6968433   6.6968430   6.6968430   6.6968433   6.6968436   6.6968433
   6.6968436   6.6968430   6.6968436   6.6968430   6.6968436   6.6968433
   0.9225309   0.9225443   0.9225313   0.9225443   0.9225443   0.9225310
   0.9225443   0.9225333
 SUMMED SPIN DENSITY          -0.00000000
 TOTAL ATOMIC SPINS  :
   0.5497195  -0.5496790   0.5497194  -0.5496784  -0.5496790   0.5497195
  -0.5496784   0.5497194  -0.0000098  -0.0000098  -0.0000101  -0.0000101
  -0.0000094  -0.0000097  -0.0000097  -0.0000094  -0.0000098  -0.0000094
  -0.0000101  -0.0000097  -0.0000098  -0.0000097  -0.0000101  -0.0000094
  -0.0000009  -0.0000007  -0.0000009  -0.0000007  -0.0000007  -0.0000012
  -0.0000007  -0.0000012
 TTTTTTTTTTTTTTTTTTTTTTTTTTTTTT MOQGAD      TELAPSE     7253.70 TCPU     7066.60
 TTTTTTTTTTTTTTTTTTTTTTTTTTTTTT SHELLXN     TELAPSE     7992.77 TCPU     7798.56
 TTTTTTTTTTTTTTTTTTTTTTTTTTTTTT MONMO3      TELAPSE     8022.32 TCPU     7828.14
 NUMERICALLY INTEGRATED DENSITY    131.9998819196    131.9998818859
 TTTTTTTTTTTTTTTTTTTTTTTTTTTTTT NUMDFT      TELAPSE     8028.65 TCPU     7834.47
 CYC   9 ETOT(AU) -1.842088580235E+03 DETOT -4.72E-05 tst  8.69E-07 PX  1.73E-03
 CYCLE  9 WAVE FUNCTION SAVED IN FORTRAN UNIT 79
 TTTTTTTTTTTTTTTTTTTTTTTTTTTTTT DIIS        TELAPSE     8041.95 TCPU     7839.86
 DIIS TEST: 0.97247E-06 AT SCF   CYCLE   9 - DIIS ACTIVE - HISTORY:     9 CYCLES
 TTTTTTTTTTTTTTTTTTTTTTTTTTTTTT FDIK        TELAPSE     8052.90 TCPU     7847.15
 SPIN LOCKING: NO ENERGY GAP COMPUTED
 TTTTTTTTTTTTTTTTTTTTTTTTTTTTTT PDIG        TELAPSE     8053.98 TCPU     7848.24
 CHARGE NORMALIZATION FACTOR   1.00000000
 TOTAL ATOMIC CHARGES:
  18.6837465  18.6837450  18.6837477  18.6837444  18.6837450  18.6837465
  18.6837444  18.6837477   6.6968563   6.6968563   6.6968564   6.6968564
   6.6968556   6.6968558   6.6968558   6.6968556   6.6968563   6.6968556
   6.6968564   6.6968558   6.6968563   6.6968558   6.6968564   6.6968556
   0.9225458   0.9225381   0.9225459   0.9225381   0.9225381   0.9225449
   0.9225381   0.9225476
 SUMMED SPIN DENSITY          -0.00000000
 TOTAL ATOMIC SPINS  :
   0.5499151  -0.5499114   0.5499153  -0.5499112  -0.5499114   0.5499151
  -0.5499112   0.5499153  -0.0000008  -0.0000008  -0.0000011  -0.0000011
  -0.0000009  -0.0000010  -0.0000010  -0.0000009  -0.0000008  -0.0000009
  -0.0000011  -0.0000010  -0.0000008  -0.0000010  -0.0000011  -0.0000009
  -0.0000000  -0.0000002   0.0000000  -0.0000002  -0.0000002   0.0000001
  -0.0000002   0.0000002
 TTTTTTTTTTTTTTTTTTTTTTTTTTTTTT MOQGAD      TELAPSE     8054.06 TCPU     7848.32
 TTTTTTTTTTTTTTTTTTTTTTTTTTTTTT SHELLXN     TELAPSE     8793.17 TCPU     8577.51
 TTTTTTTTTTTTTTTTTTTTTTTTTTTTTT MONMO3      TELAPSE     8826.43 TCPU     8610.79
 NUMERICALLY INTEGRATED DENSITY    131.9998819316    131.9998818993
 TTTTTTTTTTTTTTTTTTTTTTTTTTTTTT NUMDFT      TELAPSE     8832.64 TCPU     8617.01
 CYC  10 ETOT(AU) -1.842088580290E+03 DETOT -5.50E-08 tst  6.81E-09 PX  1.69E-04
 CYCLE 10 WAVE FUNCTION SAVED IN FORTRAN UNIT 79
 TTTTTTTTTTTTTTTTTTTTTTTTTTTTTT DIIS        TELAPSE     8848.34 TCPU     8627.53
 DIIS TEST: 0.38012E-07 AT SCF   CYCLE  10 - DIIS ACTIVE - HISTORY:    10 CYCLES
 TTTTTTTTTTTTTTTTTTTTTTTTTTTTTT FDIK        TELAPSE     8865.07 TCPU     8632.58
 SPIN LOCKING: NO ENERGY GAP COMPUTED
 TTTTTTTTTTTTTTTTTTTTTTTTTTTTTT PDIG        TELAPSE     8866.15 TCPU     8633.67
 CHARGE NORMALIZATION FACTOR   1.00000000
 TOTAL ATOMIC CHARGES:
  18.6837451  18.6837489  18.6837462  18.6837485  18.6837489  18.6837451
  18.6837485  18.6837462   6.6968548   6.6968548   6.6968549   6.6968549
   6.6968542   6.6968543   6.6968543   6.6968542   6.6968548   6.6968542
   6.6968549   6.6968543   6.6968548   6.6968543   6.6968549   6.6968542
   0.9225393   0.9225479   0.9225395   0.9225479   0.9225479   0.9225385
   0.9225479   0.9225410
 SUMMED SPIN DENSITY          -0.00000000
 TOTAL ATOMIC SPINS  :
   0.5499495  -0.5499493   0.5499496  -0.5499490  -0.5499493   0.5499495
  -0.5499490   0.5499496   0.0000000   0.0000000  -0.0000001  -0.0000001
  -0.0000000  -0.0000002  -0.0000002  -0.0000000   0.0000000  -0.0000000
  -0.0000001  -0.0000002   0.0000000  -0.0000002  -0.0000001  -0.0000000
   0.0000001  -0.0000002   0.0000001  -0.0000002  -0.0000002   0.0000002
  -0.0000002   0.0000003
 TTTTTTTTTTTTTTTTTTTTTTTTTTTTTT MOQGAD      TELAPSE     8866.23 TCPU     8633.74
 TTTTTTTTTTTTTTTTTTTTTTTTTTTTTT SHELLXN     TELAPSE     9605.34 TCPU     9363.47
 TTTTTTTTTTTTTTTTTTTTTTTTTTTTTT MONMO3      TELAPSE     9639.79 TCPU     9397.92
 NUMERICALLY INTEGRATED DENSITY    131.9998819317    131.9998818995
 TTTTTTTTTTTTTTTTTTTTTTTTTTTTTT NUMDFT      TELAPSE     9646.11 TCPU     9404.24
 CYC  11 ETOT(AU) -1.842088580315E+03 DETOT -2.50E-08 tst  2.64E-10 PX  4.75E-05
 CYCLE 11 WAVE FUNCTION SAVED IN FORTRAN UNIT 79
 TTTTTTTTTTTTTTTTTTTTTTTTTTTTTT DIIS        TELAPSE     9662.89 TCPU     9418.44
 DIIS TEST: 0.99300E-08 AT SCF   CYCLE  11 - DIIS ACTIVE - HISTORY:    11 CYCLES
 TTTTTTTTTTTTTTTTTTTTTTTTTTTTTT FDIK        TELAPSE     9675.93 TCPU     9422.94
 SPIN LOCKING: NO ENERGY GAP COMPUTED
 TTTTTTTTTTTTTTTTTTTTTTTTTTTTTT PDIG        TELAPSE     9677.01 TCPU     9424.03
 CHARGE NORMALIZATION FACTOR   1.00000000
 TOTAL ATOMIC CHARGES:
  18.6837471  18.6837465  18.6837483  18.6837459  18.6837465  18.6837471
  18.6837459  18.6837483   6.6968547   6.6968547   6.6968547   6.6968547
   6.6968540   6.6968542   6.6968542   6.6968540   6.6968547   6.6968540
   6.6968547   6.6968542   6.6968547   6.6968542   6.6968547   6.6968540
   0.9225450   0.9225433   0.9225452   0.9225433   0.9225433   0.9225440
   0.9225433   0.9225467
 SUMMED SPIN DENSITY           0.00000000
 TOTAL ATOMIC SPINS  :
   0.5499561  -0.5499551   0.5499563  -0.5499550  -0.5499551   0.5499561
  -0.5499550   0.5499563  -0.0000001  -0.0000001  -0.0000003  -0.0000003
  -0.0000002  -0.0000002  -0.0000002  -0.0000002  -0.0000001  -0.0000002
  -0.0000003  -0.0000002  -0.0000001  -0.0000002  -0.0000003  -0.0000002
  -0.0000001  -0.0000003  -0.0000000  -0.0000003  -0.0000003   0.0000000
  -0.0000003   0.0000001
 TTTTTTTTTTTTTTTTTTTTTTTTTTTTTT MOQGAD      TELAPSE     9677.09 TCPU     9424.11
 TTTTTTTTTTTTTTTTTTTTTTTTTTTTTT SHELLXN     TELAPSE    10413.96 TCPU    10152.56
 TTTTTTTTTTTTTTTTTTTTTTTTTTTTTT MONMO3      TELAPSE    10448.75 TCPU    10187.38
 NUMERICALLY INTEGRATED DENSITY    131.9998819314    131.9998818991
 TTTTTTTTTTTTTTTTTTTTTTTTTTTTTT NUMDFT      TELAPSE    10455.07 TCPU    10193.70
 CYC  12 ETOT(AU) -1.842088580310E+03 DETOT  5.33E-09 tst  3.51E-11 PX  1.51E-05
 CYCLE 12 WAVE FUNCTION SAVED IN FORTRAN UNIT 79
 TTTTTTTTTTTTTTTTTTTTTTTTTTTTTT DIIS        TELAPSE    10470.53 TCPU    10198.03
 DIIS TEST: 0.29173E-08 AT SCF   CYCLE  12 - DIIS ACTIVE - HISTORY:    12 CYCLES
 TTTTTTTTTTTTTTTTTTTTTTTTTTTTTT FDIK        TELAPSE    10482.13 TCPU    10205.63
 SPIN LOCKING: NO ENERGY GAP COMPUTED
 TTTTTTTTTTTTTTTTTTTTTTTTTTTTTT PDIG        TELAPSE    10483.09 TCPU    10206.60
 CHARGE NORMALIZATION FACTOR   1.00000000
 TOTAL ATOMIC CHARGES:
  18.6837456  18.6837485  18.6837470  18.6837480  18.6837485  18.6837456
  18.6837480  18.6837470   6.6968545   6.6968545   6.6968545   6.6968545
   6.6968538   6.6968541   6.6968541   6.6968538   6.6968545   6.6968538
   6.6968545   6.6968541   6.6968545   6.6968541   6.6968545   6.6968538
   0.9225426   0.9225456   0.9225429   0.9225456   0.9225456   0.9225417
   0.9225456   0.9225444
 SUMMED SPIN DENSITY           0.00000000
 TOTAL ATOMIC SPINS  :
   0.5499559  -0.5499563   0.5499560  -0.5499561  -0.5499563   0.5499559
  -0.5499561   0.5499560   0.0000002   0.0000002  -0.0000001  -0.0000001
   0.0000002   0.0000000   0.0000000   0.0000002   0.0000002   0.0000002
  -0.0000001   0.0000000   0.0000002   0.0000000  -0.0000001   0.0000002
  -0.0000000  -0.0000001  -0.0000000  -0.0000001  -0.0000001   0.0000000
  -0.0000001   0.0000001
 TTTTTTTTTTTTTTTTTTTTTTTTTTTTTT MOQGAD      TELAPSE    10483.17 TCPU    10206.68
 TTTTTTTTTTTTTTTTTTTTTTTTTTTTTT SHELLXN     TELAPSE    11225.10 TCPU    10935.50
 TTTTTTTTTTTTTTTTTTTTTTTTTTTTTT MONMO3      TELAPSE    11257.92 TCPU    10968.34
 NUMERICALLY INTEGRATED DENSITY    131.9998819312    131.9998818989
 TTTTTTTTTTTTTTTTTTTTTTTTTTTTTT NUMDFT      TELAPSE    11264.21 TCPU    10974.64
 CYC  13 ETOT(AU) -1.842088580312E+03 DETOT -2.15E-09 tst  8.31E-12 PX  6.64E-06
 CYCLE 13 WAVE FUNCTION SAVED IN FORTRAN UNIT 79
 TTTTTTTTTTTTTTTTTTTTTTTTTTTTTT DIIS        TELAPSE    11279.71 TCPU    10977.52
 DIIS TEST: 0.57082E-09 AT SCF   CYCLE  13 - DIIS ACTIVE - HISTORY:    13 CYCLES
 TTTTTTTTTTTTTTTTTTTTTTTTTTTTTT FDIK        TELAPSE    11294.71 TCPU    10984.34
 SPIN LOCKING: NO ENERGY GAP COMPUTED
 TTTTTTTTTTTTTTTTTTTTTTTTTTTTTT PDIG        TELAPSE    11295.79 TCPU    10985.42
 CHARGE NORMALIZATION FACTOR   1.00000000
 TOTAL ATOMIC CHARGES:
  18.6837465  18.6837478  18.6837479  18.6837471  18.6837478  18.6837465
  18.6837471  18.6837479   6.6968546   6.6968546   6.6968546   6.6968546
   6.6968538   6.6968541   6.6968541   6.6968538   6.6968546   6.6968538
   6.6968546   6.6968541   6.6968546   6.6968541   6.6968546   6.6968538
   0.9225430   0.9225449   0.9225433   0.9225449   0.9225449   0.9225421
   0.9225449   0.9225448
 SUMMED SPIN DENSITY           0.00000000
 TOTAL ATOMIC SPINS  :
   0.5499547  -0.5499544   0.5499548  -0.5499543  -0.5499544   0.5499547
  -0.5499543   0.5499548   0.0000000   0.0000000  -0.0000002  -0.0000002
  -0.0000000  -0.0000001  -0.0000001  -0.0000000   0.0000000  -0.0000000
  -0.0000002  -0.0000001   0.0000000  -0.0000001  -0.0000002  -0.0000000
  -0.0000000  -0.0000001  -0.0000000  -0.0000001  -0.0000001  -0.0000000
  -0.0000001   0.0000001
 TTTTTTTTTTTTTTTTTTTTTTTTTTTTTT MOQGAD      TELAPSE    11295.87 TCPU    10985.50
 TTTTTTTTTTTTTTTTTTTTTTTTTTTTTT SHELLXN     TELAPSE    12030.82 TCPU    11714.37
 TTTTTTTTTTTTTTTTTTTTTTTTTTTTTT MONMO3      TELAPSE    12066.76 TCPU    11750.34
 NUMERICALLY INTEGRATED DENSITY    131.9998819311    131.9998818987
 TTTTTTTTTTTTTTTTTTTTTTTTTTTTTT NUMDFT      TELAPSE    12072.96 TCPU    11756.54
 CYC  14 ETOT(AU) -1.842088580313E+03 DETOT -1.06E-09 tst  9.19E-13 PX  1.49E-06
 CYCLE 14 WAVE FUNCTION SAVED IN FORTRAN UNIT 79
 TTTTTTTTTTTTTTTTTTTTTTTTTTTTTT DIIS        TELAPSE    12087.63 TCPU    11763.86
 DIIS TEST: 0.87703E-10 AT SCF   CYCLE  14 - DIIS ACTIVE - HISTORY:    14 CYCLES
 TTTTTTTTTTTTTTTTTTTTTTTTTTTTTT FDIK        TELAPSE    12099.07 TCPU    11770.21
 SPIN LOCKING: NO ENERGY GAP COMPUTED
 TTTTTTTTTTTTTTTTTTTTTTTTTTTTTT PDIG        TELAPSE    12100.15 TCPU    11771.30
 CHARGE NORMALIZATION FACTOR   1.00000000
 TOTAL ATOMIC CHARGES:
  18.6837460  18.6837482  18.6837475  18.6837476  18.6837482  18.6837460
  18.6837476  18.6837475   6.6968546   6.6968546   6.6968546   6.6968546
   6.6968538   6.6968542   6.6968542   6.6968538   6.6968546   6.6968538
   6.6968546   6.6968542   6.6968546   6.6968542   6.6968546   6.6968538
   0.9225431   0.9225448   0.9225433   0.9225448   0.9225448   0.9225421
   0.9225448   0.9225448
 SUMMED SPIN DENSITY           0.00000000
 TOTAL ATOMIC SPINS  :
   0.5499538  -0.5499540   0.5499539  -0.5499538  -0.5499540   0.5499538
  -0.5499538   0.5499539   0.0000001   0.0000001  -0.0000001  -0.0000001
   0.0000001   0.0000000   0.0000000   0.0000001   0.0000001   0.0000001
  -0.0000001   0.0000000   0.0000001   0.0000000  -0.0000001   0.0000001
  -0.0000000  -0.0000001  -0.0000000  -0.0000001  -0.0000001  -0.0000000
  -0.0000001   0.0000001
 TTTTTTTTTTTTTTTTTTTTTTTTTTTTTT MOQGAD      TELAPSE    12100.23 TCPU    11771.38
 TTTTTTTTTTTTTTTTTTTTTTTTTTTTTT SHELLXN     TELAPSE    12835.39 TCPU    12500.21
 TTTTTTTTTTTTTTTTTTTTTTTTTTTTTT MONMO3      TELAPSE    12873.35 TCPU    12538.20
 NUMERICALLY INTEGRATED DENSITY    131.9998819310    131.9998818987
 TTTTTTTTTTTTTTTTTTTTTTTTTTTTTT NUMDFT      TELAPSE    12879.61 TCPU    12544.47
 CYC  15 ETOT(AU) -1.842088580313E+03 DETOT  9.23E-11 tst  2.07E-13 PX  6.87E-07
 CYCLE 15 WAVE FUNCTION SAVED IN FORTRAN UNIT 79
 TTTTTTTTTTTTTTTTTTTTTTTTTTTTTT DIIS        TELAPSE    12895.87 TCPU    12550.69
 DIIS TEST: 0.46426E-10 AT SCF   CYCLE  15 - DIIS ACTIVE - HISTORY:    15 CYCLES
 TTTTTTTTTTTTTTTTTTTTTTTTTTTTTT FDIK        TELAPSE    12908.23 TCPU    12556.85
 SPIN LOCKING: NO ENERGY GAP COMPUTED
 TTTTTTTTTTTTTTTTTTTTTTTTTTTTTT PDIG        TELAPSE    12909.32 TCPU    12557.94
 CHARGE NORMALIZATION FACTOR   1.00000000
 TOTAL ATOMIC CHARGES:
  18.6837462  18.6837481  18.6837476  18.6837474  18.6837481  18.6837462
  18.6837474  18.6837476   6.6968546   6.6968546   6.6968546   6.6968546
   6.6968538   6.6968542   6.6968542   6.6968538   6.6968546   6.6968538
   6.6968546   6.6968542   6.6968546   6.6968542   6.6968546   6.6968538
   0.9225429   0.9225449   0.9225432   0.9225449   0.9225449   0.9225420
   0.9225449   0.9225447
 SUMMED SPIN DENSITY           0.00000000
 TOTAL ATOMIC SPINS  :
   0.5499536  -0.5499537   0.5499537  -0.5499536  -0.5499537   0.5499536
  -0.5499536   0.5499537   0.0000001   0.0000001  -0.0000001  -0.0000001
   0.0000001   0.0000000   0.0000000   0.0000001   0.0000001   0.0000001
  -0.0000001   0.0000000   0.0000001   0.0000000  -0.0000001   0.0000001
  -0.0000000  -0.0000001  -0.0000000  -0.0000001  -0.0000001   0.0000000
  -0.0000001   0.0000001
 TTTTTTTTTTTTTTTTTTTTTTTTTTTTTT MOQGAD      TELAPSE    12909.39 TCPU    12558.02
 TTTTTTTTTTTTTTTTTTTTTTTTTTTTTT SHELLXN     TELAPSE    13639.94 TCPU    13285.04
 +++ ENERGIES IN A.U. +++
 ::: EXT EL-POLE                                  -1.4837201798104E+04
 ::: EXT EL-SPHEROPOLE                             5.1054089477372E+01
 ::: BIELET ZONE E-E                               1.5667230475304E+04
 ::: TOTAL E-E                                     8.8108276667700E+02
 ::: TOTAL E-N + N-E                              -2.9255688161914E+03
 ::: TOTAL N-N                                    -8.2862678999312E+02
 ::: KINETIC ENERGY                                1.1940864352927E+03
 ::: PSEUDO TOTAL   ENERGY                        -1.6790264042148E+03
 ::: VIRIAL COEFFICIENT                            8.3121443674128E-01
 TTTTTTTTTTTTTTTTTTTTTTTTTTTTTT MONMO3      TELAPSE    13676.29 TCPU    13321.42
 NUMERICALLY INTEGRATED DENSITY    131.9998819310    131.9998818986
 TTTTTTTTTTTTTTTTTTTTTTTTTTTTTT NUMDFT      TELAPSE    13682.60 TCPU    13327.74
 CYC  16 ETOT(AU) -1.842088580313E+03 DETOT -7.71E-11 tst  2.69E-14 PX  6.87E-07

 == SCF ENDED - CONVERGENCE ON ENERGY      E(AU) -1.8420885803128E+03 CYCLES  16


 ENERGY EXPRESSION=HARTREE+FOCK EXCH*0.25000+(PBE        EXCH)*0.75000+PBE        CORR

 FINITE TEMPERATURE DFT CALCULATION 
 TEMPERATURE      (T)    1.000000000000E-13 HARTREE 
 ENERGY           (E)   -1.842088580313E+03
 FREE ENERGY      (F)   -1.842088580313E+03
 ELECTRON ENTROPY (S)    0.000000000000E+00
 (E(T)+F(T))/2    (E0)  -1.842088580313E+03


 TOTAL ENERGY(DFT)(AU)( 16) -1.8420885803128E+03 DE-7.7E-11 tester 2.7E-14
 TTTTTTTTTTTTTTTTTTTTTTTTTTTTTT EDFT        TELAPSE    13682.70 TCPU    13327.75
 EIGENVECTORS IN FORTRAN UNIT  8
 TTTTTTTTTTTTTTTTTTTTTTTTTTTTTT END         TELAPSE    13684.22 TCPU    13329.09
 EEEEEEEEEE TERMINATION  DATE 28 05 2018 TIME 17:24:32.1
NODE    0 CPU TIME =     13329.088
NODE    1 CPU TIME =     13361.334
NODE    2 CPU TIME =     13379.191
NODE    3 CPU TIME =     13319.109
NODE    4 CPU TIME =     13383.572
NODE    5 CPU TIME =     13353.416
NODE    6 CPU TIME =     13378.743
NODE    7 CPU TIME =     13335.700
NODE    8 CPU TIME =     13365.645
NODE    9 CPU TIME =     13345.367
NODE   10 CPU TIME =     13404.517
NODE   11 CPU TIME =     13341.181
NODE   12 CPU TIME =     13430.088
NODE   13 CPU TIME =     13416.260
NODE   14 CPU TIME =     13408.358
NODE   15 CPU TIME =     13392.708
NODE   16 CPU TIME =     13337.296
NODE   17 CPU TIME =     13286.908
NODE   18 CPU TIME =     13382.399
NODE   19 CPU TIME =     13305.713
NODE   20 CPU TIME =     13385.099
NODE   21 CPU TIME =     13380.294
NODE   22 CPU TIME =     13383.275
NODE   23 CPU TIME =     13352.677
    TOTAL CPU TIME =    320757.939
