--------------------------------------------------------------------------
WARNING: No preset parameters were found for the device that Open MPI
detected:

  Local host:            golub088
  Device name:           mlx4_0
  Device vendor ID:      0x02c9
  Device vendor part ID: 4099

Default device parameters will be used, which may result in lower
performance.  You can edit any of the files specified by the
btl_openib_device_param_files MCA parameter to set values for your
device.

NOTE: You can turn off this warning by setting the MCA parameter
      btl_openib_warn_no_device_params_found to 0.
--------------------------------------------------------------------------
 PROCESS            0  OF           16  WORKING
 PROCESS            6  OF           16  WORKING
 PROCESS            9  OF           16  WORKING
 PROCESS           12  OF           16  WORKING
 PROCESS           11  OF           16  WORKING
 PROCESS           13  OF           16  WORKING
 PROCESS           15  OF           16  WORKING
 PROCESS           14  OF           16  WORKING
 PROCESS            4  OF           16  WORKING
 PROCESS           10  OF           16  WORKING
 PROCESS            1  OF           16  WORKING
 PROCESS            8  OF           16  WORKING
 PROCESS            3  OF           16  WORKING
 PROCESS            2  OF           16  WORKING
 PROCESS            7  OF           16  WORKING
 PROCESS            5  OF           16  WORKING

         
 *******************************************************************************
 *                                                                             *
 *                               CRYSTAL17                                     *
 *                      public : 1.0.1 - Jun 21st, 2017                        *
 *                       HTTP://WWW.CRYSTAL.UNITO.IT                           *
 *                                                                             *
 *                              MAIN AUTHORS                                   *
 *                                                                             *
 *  R. DOVESI(1,11), V.R. SAUNDERS(2), C. ROETTI(1,11), R. ORLANDO(1,11),      *
 *  C.M. ZICOVICH-WILSON(1,3), F. PASCALE(4), B. CIVALLERI(1,11),              *
 *  K. DOLL(5), N.M. HARRISON(2,6), I.J. BUSH(7), Ph. D'ARCO(8),               *
 *  M. LLUNELL(9), M. CAUSA'(10), Y. NOEL(8), L. MASCHIO(1,11), A. ERBA(1,11)  *
 *  M. RE'RAT(14), S. CASASSA(1,11)                                            *
 *                                                                             *
 *        CONTRIBUTIONS TO THE CODE HAVE ALSO BEEN GIVEN BY                    *
 *                                                                             *
 *  M. FERRABONE(1,11), M. DE LA PIERRE(1,11), M. FERRERO(1,11),               *
 *  J. BAIMA(1,11), E. ALBANESE(1,11), M.F. PEINTINGER(12), R. BAST(13),       *
 *  B. KIRTMAN(15), V. LACIVITA(1,11), R. DEMICHELIS(1,16)                     *
 *  G. BRANDEBURG(17), S. SALUSTRO(1,11), G. SANSONE(1,11)                     *
 *  M.T. RUGGIERO(18)                                                          *
 *                                                                             *
 * (1) THEORETICAL CHEMISTRY GROUP - UNIVERSITA' DI TORINO - TORINO (ITALY)    *

 * (2) COMPUTATIONAL SCIENCE & ENGINEERING DEPARTMENT - STFC DARESBURY (UK)    *
 * (3) UNIVERSIDAD AUTONOMA DEL ESTADO DE MORELOS - CUERNAVACA (MEXICO)        *
 * (4) UNIVERSITE' DE LORRAINE - NANCY (FRANCE)                                *
 * (5) UNIVERSITAET STUTTGART- STUTTGART (GERMANY)                             *
 * (6) IMPERIAL COLLEGE - LONDON (UK)                                          *
 * (7) OXFORD E-RESEARCH CENTRE - OXFORD (UK)                                  *
 * (8) UPMC - SORBONNE UNIVERSITES - PARIS (FRANCE)                            *
 * (9) UNIVERSIDAD DE BARCELONA - BARCELONA (SPAIN)                            *
 *(10) UNIVERSITA' DI NAPOLI "FEDERICO II" - NAPOLI (ITALY)                    *
 *(11) NIS - NANOSTRUCTURED INTERFACES AND SURFACES - TORINO (ITALY)           *
 *(12) MPI FUER CHEMISCHE ENERGIEKONVERSION - MUELHEIM AN DER RUHR (GERMANY)   *
 *(13) UNIVERSITY OF TROMSO - TROMSO (NORWAY)                                  *
 *(14) UNIVERSITE' DE PAU ET DES PAYS DE L'ADOUR - PAU (FRANCE)                *
 *(15) UNIVERSITY OF CALIFORNIA SANTA BARBARA - SANTA BARBARA (USA)            *
 *(16) CURTIN UNIVERSITY - PERTH (AUSTRALIA)                                   *
 *(17) UNIVERSITY COLLEGE LONDON - LONDON (UK)                                 *
 *(18) CAMBRIDGE UNIVERSITY - CAMBRIDGE (UK)                                   *
 *                                                                             *
 *******************************************************************************
 EEEEEEEEEE STARTING  DATE 29 11 2017 TIME 18:10:16.4
 Generated by CrystalWriter                                                      

 CRYSTAL CALCULATION
 (INPUT ACCORDING TO THE INTERNATIONAL TABLES FOR X-RAY CRYSTALLOGRAPHY)
 CRYSTAL FAMILY                       :  TETRAGONAL  
 CRYSTAL CLASS  (GROTH - 1921)        :  DITETRAGONAL DIPYRAMIDAL             

 SPACE GROUP (CENTROSYMMETRIC)        :  P 4/M M M       

 LATTICE PARAMETERS  (ANGSTROMS AND DEGREES) - CONVENTIONAL CELL
        A           B           C        ALPHA        BETA       GAMMA
     7.85570     7.85570     3.43380    90.00000    90.00000    90.00000


 NUMBER OF IRREDUCIBLE ATOMS IN THE CONVENTIONAL CELL:   16

 INPUT COORDINATES

 ATOM AT. N.              COORDINATES
   1 238     2.500000000000E-01  7.500000000000E-01  5.000000000000E-01
   2 238     2.500000000000E-01  2.500000000000E-01  5.000000000000E-01
   3 238     7.500000000000E-01  2.500000000000E-01  5.000000000000E-01
   4 238     7.500000000000E-01  7.500000000000E-01  5.000000000000E-01
   5 229     5.000000000000E-01  5.000000000000E-01  0.000000000000E+00
   6 229     0.000000000000E+00  5.000000000000E-01  0.000000000000E+00
   7 229     0.000000000000E+00  0.000000000000E+00  0.000000000000E+00
   8 229     5.000000000000E-01  0.000000000000E+00  0.000000000000E+00
   9 208     0.000000000000E+00  2.500000000000E-01  0.000000000000E+00
  10 208     7.500000000000E-01  5.000000000000E-01  0.000000000000E+00
  11 208     5.000000000000E-01  2.500000000000E-01  0.000000000000E+00
  12 208     2.500000000000E-01  5.000000000000E-01  0.000000000000E+00
  13 208     7.500000000000E-01  0.000000000000E+00  0.000000000000E+00
  14 208     0.000000000000E+00  7.500000000000E-01  0.000000000000E+00
  15 208     5.000000000000E-01  7.500000000000E-01  0.000000000000E+00
  16 208     2.500000000000E-01  0.000000000000E+00  0.000000000000E+00

 *******************************************************************************

 << INFORMATION >>: FROM NOW ON, ALL COORDINATES REFER TO THE PRIMITIVE CELL

 *******************************************************************************

 LATTICE PARAMETERS  (ANGSTROMS AND DEGREES) - PRIMITIVE CELL
       A          B          C        ALPHA      BETA     GAMMA        VOLUME
    7.85570    7.85570    3.43380    90.00000  90.00000  90.00000    211.906743

 INPUT LIST - ATOM N.   3 NOT IRREDUCIBLE

 INPUT LIST - ATOM N.   2 NOT IRREDUCIBLE

 INPUT LIST - ATOM N.   4 NOT IRREDUCIBLE

 INPUT LIST - ATOM N.   7 NOT IRREDUCIBLE

 INPUT LIST - ATOM N.  15 NOT IRREDUCIBLE

 INPUT LIST - ATOM N.  14 NOT IRREDUCIBLE

 INPUT LIST - ATOM N.  11 NOT IRREDUCIBLE

 INPUT LIST - ATOM N.  10 NOT IRREDUCIBLE

 INPUT LIST - ATOM N.  16 NOT IRREDUCIBLE

 INPUT LIST - ATOM N.  12 NOT IRREDUCIBLE

 COORDINATES OF THE EQUIVALENT ATOMS (FRACTIONAL UNITS)

 N. ATOM EQUIV AT. N.          X                  Y                  Z

   1   1   1  238 SR    2.50000000000E-01 -2.50000000000E-01 -5.00000000000E-01
   2   1   2  238 SR   -2.50000000000E-01  2.50000000000E-01 -5.00000000000E-01
   3   1   3  238 SR    2.50000000000E-01  2.50000000000E-01  5.00000000000E-01
   4   1   4  238 SR   -2.50000000000E-01 -2.50000000000E-01  5.00000000000E-01




   5   5   1  229 CU   -5.00000000000E-01 -5.00000000000E-01  0.00000000000E+00

   6   6   1  229 CU    0.00000000000E+00 -5.00000000000E-01  0.00000000000E+00
   7   6   2  229 CU    5.00000000000E-01  0.00000000000E+00  0.00000000000E+00

 NUMBER OF SYMMETRY OPERATORS         :   16
 *******************************************************************************
 * GEOMETRY EDITING - INPUT COORDINATES ARE GIVEN IN ANGSTROM         
 *******************************************************************************

 GEOMETRY NOW FULLY CONSISTENT WITH THE GROUP
 SSSSSSSSSSSSSSSSSSSSSSSSSSSSSSSSSSSSSSSSSSSSSSSSSSSSSSSSSSSSSSSSSSSSSSSSSSSSSS
 REDUCTION OF SYMMETRY - ATOMIC LABELS SET TO (ATOM, AT. N., LABEL)
   1(238) 1;   2(238) 1;   3(238) 1;   4(238) 1;   5(229) 2;   6(229) 2;
   7(229) 2;   8(229) 2;   9(208) 3;  10(208) 3;  11(208) 3;  12(208) 3;
  13(208) 3;  14(208) 3;  15(208) 3;  16(208) 3;
 WARNING **** MODSYM **** GEOMETRICAL SYMMETRY NOT REDUCED

 GCALCO - MAX INDICES DIRECT LATTICE VECTOR    11    11    25
 NO.OF VECTORS CREATED 6999 STARS  550 RMAX   133.78549 BOHR

 GEOMETRY FOR WAVE FUNCTION - DIMENSIONALITY OF THE SYSTEM    3
 (NON PERIODIC DIRECTION: LATTICE PARAMETER FORMALLY SET TO 500)
 *******************************************************************************
 LATTICE PARAMETERS (ANGSTROMS AND DEGREES) - BOHR = 0.5291772083 ANGSTROM
 PRIMITIVE CELL - CENTRING CODE 1/0 VOLUME=   211.906743 - DENSITY  5.731 g/cm^3
         A              B              C           ALPHA      BETA       GAMMA 
     7.85570000     7.85570000     3.43380000    90.000000  90.000000  90.000000
 *******************************************************************************
 ATOMS IN THE ASYMMETRIC UNIT    6 - ATOMS IN THE UNIT CELL:   16
     ATOM                 X/A                 Y/B                 Z/C    
 *******************************************************************************
      1 T 238 SR    2.500000000000E-01 -2.500000000000E-01  5.000000000000E-01
      2 F 238 SR   -2.500000000000E-01  2.500000000000E-01  5.000000000000E-01
      3 F 238 SR    2.500000000000E-01  2.500000000000E-01  5.000000000000E-01
      4 F 238 SR   -2.500000000000E-01 -2.500000000000E-01  5.000000000000E-01
      5 T 229 CU   -5.000000000000E-01 -5.000000000000E-01  0.000000000000E+00
      6 T 229 CU    0.000000000000E+00 -5.000000000000E-01  0.000000000000E+00
      7 F 229 CU   -5.000000000000E-01  0.000000000000E+00  0.000000000000E+00
      8 T 229 CU    0.000000000000E+00  0.000000000000E+00  0.000000000000E+00
      9 T 208 O     0.000000000000E+00  2.500000000000E-01  0.000000000000E+00
     10 F 208 O     0.000000000000E+00 -2.500000000000E-01  0.000000000000E+00
     11 F 208 O    -2.500000000000E-01  0.000000000000E+00  0.000000000000E+00
     12 F 208 O     2.500000000000E-01  0.000000000000E+00  0.000000000000E+00
     13 T 208 O    -2.500000000000E-01 -5.000000000000E-01  0.000000000000E+00
     14 F 208 O     2.500000000000E-01 -5.000000000000E-01  0.000000000000E+00
     15 F 208 O    -5.000000000000E-01  2.500000000000E-01  0.000000000000E+00
     16 F 208 O    -5.000000000000E-01 -2.500000000000E-01  0.000000000000E+00

 T = ATOM BELONGING TO THE ASYMMETRIC UNIT

 ****   16 SYMMOPS - TRANSLATORS IN FRACTIONAL UNITS
 **** MATRICES AND TRANSLATORS IN THE CRYSTALLOGRAPHIC REFERENCE FRAME
   V INV                    ROTATION MATRICES                   TRANSLATORS
   1   1  1.00  0.00  0.00  0.00  1.00  0.00  0.00  0.00  1.00  0.00  0.00  0.00
   2   2 -1.00  0.00  0.00  0.00 -1.00  0.00  0.00  0.00  1.00  0.00  0.00  0.00
   3   3  1.00  0.00  0.00  0.00 -1.00  0.00  0.00  0.00 -1.00  0.00  0.00  0.00
   4   4 -1.00  0.00  0.00  0.00  1.00  0.00  0.00  0.00 -1.00  0.00  0.00  0.00
   5   5  0.00 -1.00  0.00 -1.00  0.00  0.00  0.00  0.00 -1.00  0.00  0.00  0.00
   6   6  0.00  1.00  0.00  1.00  0.00  0.00  0.00  0.00 -1.00  0.00  0.00  0.00
   7   8  0.00  1.00  0.00 -1.00  0.00  0.00  0.00  0.00  1.00  0.00  0.00  0.00
   8   7  0.00 -1.00  0.00  1.00  0.00  0.00  0.00  0.00  1.00  0.00  0.00  0.00
   9   9 -1.00  0.00  0.00  0.00 -1.00  0.00  0.00  0.00 -1.00  0.00  0.00  0.00
  10  10  1.00  0.00  0.00  0.00  1.00  0.00  0.00  0.00 -1.00  0.00  0.00  0.00
  11  11 -1.00  0.00  0.00  0.00  1.00  0.00  0.00  0.00  1.00  0.00  0.00  0.00
  12  12  1.00  0.00  0.00  0.00 -1.00  0.00  0.00  0.00  1.00  0.00  0.00  0.00
  13  13  0.00  1.00  0.00  1.00  0.00  0.00  0.00  0.00  1.00  0.00  0.00  0.00
  14  14  0.00 -1.00  0.00 -1.00  0.00  0.00  0.00  0.00  1.00  0.00  0.00  0.00
  15  16  0.00 -1.00  0.00  1.00  0.00  0.00  0.00  0.00 -1.00  0.00  0.00  0.00
  16  15  0.00  1.00  0.00 -1.00  0.00  0.00  0.00  0.00 -1.00  0.00  0.00  0.00

 DIRECT LATTICE VECTORS CARTESIAN COMPONENTS (ANGSTROM)
          X                    Y                    Z
   0.785570000000E+01   0.000000000000E+00   0.000000000000E+00
   0.000000000000E+00   0.785570000000E+01   0.000000000000E+00
   0.000000000000E+00   0.000000000000E+00   0.343380000000E+01


 CARTESIAN COORDINATES - PRIMITIVE CELL
 *******************************************************************************
 *      ATOM          X(ANGSTROM)         Y(ANGSTROM)         Z(ANGSTROM)
 *******************************************************************************
    1   238 SR    1.963925000000E+00 -1.963925000000E+00  1.716900000000E+00
    2   238 SR   -1.963925000000E+00  1.963925000000E+00  1.716900000000E+00
    3   238 SR    1.963925000000E+00  1.963925000000E+00  1.716900000000E+00
    4   238 SR   -1.963925000000E+00 -1.963925000000E+00  1.716900000000E+00
    5   229 CU    3.927850000000E+00  3.927850000000E+00  0.000000000000E+00
    6   229 CU    0.000000000000E+00  3.927850000000E+00  0.000000000000E+00
    7   229 CU    3.927850000000E+00  0.000000000000E+00  0.000000000000E+00
    8   229 CU    0.000000000000E+00  0.000000000000E+00  0.000000000000E+00
    9   208 O     0.000000000000E+00  1.963925000000E+00  0.000000000000E+00
   10   208 O     0.000000000000E+00 -1.963925000000E+00  0.000000000000E+00
   11   208 O    -1.963925000000E+00  0.000000000000E+00  0.000000000000E+00
   12   208 O     1.963925000000E+00  0.000000000000E+00  0.000000000000E+00
   13   208 O    -1.963925000000E+00  3.927850000000E+00  0.000000000000E+00
   14   208 O     1.963925000000E+00  3.927850000000E+00  0.000000000000E+00
   15   208 O     3.927850000000E+00  1.963925000000E+00  0.000000000000E+00
   16   208 O     3.927850000000E+00 -1.963925000000E+00  0.000000000000E+00

 *******************************************************************************
 *** PSEUDOPOTENTIAL INFORMATION ***
 *******************************************************************************

 ATOMIC NUMBER  29, NUCLEAR CHARGE 19.000, GIVEN IN INPUT       PSEUDOPOTENTIAL
   TYPE       EXPONENT      COEFF.    N      EXPONENT      COEFF.    N
  W0 TMS     6.2514963   19.0000000  -1     6.7272533  118.7784294   1
             6.6102459 -105.8998240   0
  P0 TMS    12.3656871  127.3506942   0
  P1 TMS    11.1607294   71.2298490   0

 ATOMIC NUMBER   8, NUCLEAR CHARGE  6.000, GIVEN IN INPUT       PSEUDOPOTENTIAL
   TYPE       EXPONENT      COEFF.    N      EXPONENT      COEFF.    N
  W0 TMS     9.2979390    6.0000000  -1     8.8649220   55.7876342   1
             8.6292567  -38.8197850   0
  P0 TMS     8.7192445   38.4191413   0

 ATOMIC NUMBER  38, NUCLEAR CHARGE  2.000, GIVEN IN INPUT       PSEUDOPOTENTIAL
   TYPE       EXPONENT      COEFF.    N      EXPONENT      COEFF.    N
  W0 TMS     4.3839388    2.0000000  -1     3.1964983    8.7678775   1
             0.9899150  -14.2552431   0
  P0 TMS     1.2868349  146.8716052   0
  P1 TMS     0.9567448  140.0262284   0
  P2 TMS     1.9483165   24.4454878   0

 *******************************************************************************
 LOCAL ATOMIC FUNCTIONS BASIS SET
 *******************************************************************************
   ATOM   X(AU)   Y(AU)   Z(AU)  N. TYPE  EXPONENT  S COEF   P COEF   D/F/G COEF
 *******************************************************************************
   1 SR   3.711  -3.711   3.244
                                  1 S  
                                         2.177E-01-9.389E-02 0.000E+00 0.000E+00
                                         4.871E-01-2.476E-01 0.000E+00 0.000E+00
                                         1.090E+00 1.601E-01 0.000E+00 0.000E+00
                                         2.439E+00-4.360E-02 0.000E+00 0.000E+00
                                         5.457E+00 8.684E-03 0.000E+00 0.000E+00
                                         1.221E+01-1.296E-03 0.000E+00 0.000E+00
                           2-     4 P  
                                         2.236E-01 0.000E+00-4.747E-02 0.000E+00
                                         4.507E-01 0.000E+00-1.710E-01 0.000E+00
                                         9.086E-01 0.000E+00 1.048E-01 0.000E+00
                                         1.831E+00 0.000E+00-2.952E-02 0.000E+00
                                         3.692E+00 0.000E+00 6.196E-03 0.000E+00
                                         7.442E+00 0.000E+00-9.550E-04 0.000E+00
                           5-     9 D  
                                         5.283E-01 0.000E+00 0.000E+00 1.000E+00
                                 10 S  
                                         2.000E-01 1.000E+00 0.000E+00 0.000E+00
                                 11 S  
                                         6.000E-01 1.000E+00 0.000E+00 0.000E+00
                          12-    14 P  
                                         2.000E-01 0.000E+00 1.000E+00 0.000E+00
                          15-    17 P  
                                         6.000E-01 0.000E+00 1.000E+00 0.000E+00
   2 SR  -3.711   3.711   3.244
   3 SR   3.711   3.711   3.244
   4 SR  -3.711  -3.711   3.244
   5 CU   7.423   7.423   0.000
                                 69 S  
                                         2.785E+01-1.934E-02 0.000E+00 0.000E+00
                                         2.142E+01 8.861E-02 0.000E+00 0.000E+00
                                         1.054E+01-3.559E-01 0.000E+00 0.000E+00
                                         2.536E+00 5.381E-01 0.000E+00 0.000E+00
                                         1.250E+00 5.111E-01 0.000E+00 0.000E+00
                                         5.998E-01 1.476E-01 0.000E+00 0.000E+00
                                 70 S  
                                         2.785E+01-2.653E-03 0.000E+00 0.000E+00
                                         2.142E+01-7.542E-03 0.000E+00 0.000E+00
                                         1.054E+01 7.976E-02 0.000E+00 0.000E+00
                                         2.536E+00-1.553E-01 0.000E+00 0.000E+00
                                         1.250E+00-2.531E-01 0.000E+00 0.000E+00
                                         5.998E-01-2.817E-02 0.000E+00 0.000E+00
                          71-    73 P  
                                         1.859E+01 0.000E+00 3.652E-03 0.000E+00
                                         1.430E+01 0.000E+00-3.708E-02 0.000E+00
                                         5.631E+00 0.000E+00 2.171E-01 0.000E+00
                                         2.683E+00 0.000E+00 4.410E-01 0.000E+00
                                         1.259E+00 0.000E+00 3.587E-01 0.000E+00
                                         5.741E-01 0.000E+00 1.148E-01 0.000E+00
                                         2.092E-01 0.000E+00 7.316E-03 0.000E+00
                          74-    78 D  
                                         1.579E+01 0.000E+00 0.000E+00 8.422E-02
                                         7.203E+00 0.000E+00 0.000E+00 2.554E-01
                                         2.974E+00 0.000E+00 0.000E+00 3.500E-01
                                         1.207E+00 0.000E+00 0.000E+00 3.417E-01
                                         4.640E-01 0.000E+00 0.000E+00 2.417E-01
                          79-    85 F  
                                         1.692E+00 0.000E+00 0.000E+00 1.000E+00
                                 86 S  
                                         2.000E-01 1.000E+00 0.000E+00 0.000E+00
                                 87 S  
                                         6.000E-01 1.000E+00 0.000E+00 0.000E+00
                          88-    90 P  
                                         2.000E-01 0.000E+00 1.000E+00 0.000E+00
                          91-    93 P  
                                         6.000E-01 0.000E+00 1.000E+00 0.000E+00
                          94-    98 D  
                                         2.000E-01 0.000E+00 0.000E+00 1.000E+00
                          99-   103 D  
                                         6.000E-01 0.000E+00 0.000E+00 1.000E+00
   6 CU   0.000   7.423   0.000
   7 CU   7.423   0.000   0.000
   8 CU   0.000   0.000   0.000
   9 O    0.000   3.711   0.000
                                209 S  
                                         2.680E-01 3.048E-01 0.000E+00 0.000E+00
                                         5.731E-01 4.538E-01 0.000E+00 0.000E+00
                                         1.225E+00 2.959E-01 0.000E+00 0.000E+00
                                         2.620E+00 1.957E-02 0.000E+00 0.000E+00
                                         5.603E+00-1.286E-01 0.000E+00 0.000E+00
                                         1.198E+01 1.202E-02 0.000E+00 0.000E+00
                                         2.562E+01 4.070E-04 0.000E+00 0.000E+00
                                         5.478E+01-7.600E-05 0.000E+00 0.000E+00
                         210-   212 P  
                                         3.337E-01 0.000E+00 2.560E-01 0.000E+00
                                         6.666E-01 0.000E+00 2.819E-01 0.000E+00
                                         1.332E+00 0.000E+00 2.428E-01 0.000E+00
                                         2.661E+00 0.000E+00 1.611E-01 0.000E+00
                                         5.316E+00 0.000E+00 8.231E-02 0.000E+00
                                         1.062E+01 0.000E+00 3.990E-02 0.000E+00
                                         2.122E+01 0.000E+00 4.679E-03 0.000E+00
                         213-   217 D  
                                         6.693E-01 0.000E+00 0.000E+00 1.000E+00
                         218-   224 F  
                                         1.423E+00 0.000E+00 0.000E+00 1.000E+00
                                225 S  
                                         2.000E-01 1.000E+00 0.000E+00 0.000E+00
                                226 S  
                                         6.000E-01 1.000E+00 0.000E+00 0.000E+00
                         227-   229 P  
                                         2.000E-01 0.000E+00 1.000E+00 0.000E+00
                         230-   232 P  
                                         6.000E-01 0.000E+00 1.000E+00 0.000E+00
  10 O    0.000  -3.711   0.000
  11 O   -3.711   0.000   0.000
  12 O    3.711   0.000   0.000
  13 O   -3.711   7.423   0.000
  14 O    3.711   7.423   0.000
  15 O    7.423   3.711   0.000
  16 O    7.423  -3.711   0.000
 INFORMATION **** SET_MPP **** PCRYSTAL CALCULATION
 INFORMATION **** READM2 **** NEW DEFAULT: FOCK/KS MATRIX MIXING SET TO 30 %
 INFORMATION **** READM2 **** NEW DEFAULT: FULL DIRECT SCF MODE
 INFORMATION **** READM2 **** NEW DEFAULT: COULOMB BIPOLAR BUFFER SET TO 32 Mb
 INFORMATION **** READM2 **** NEW DEFAULT: EXCHANGE BIPOLAR BUFFER SET TO 32 Mb

 *******************************************************************************
 NEW DEFAULT: DFT INTEGRATION GRID INCREASED TO XLGRID
 NEW DEFAULT: DIIS ACCELERATOR ACTIVE
 USE KEYWORD NODIIS TO TURN IT OFF
 *******************************************************************************

 INFORMATION **** READM2 **** FULL DIRECT SCF (MONO AND BIEL INT) SELECTED
 INFORMATION **** BIPOSIZE **** COULOMB BIPOLAR BUFFER SET TO   100000000
 INFORMATION **** EXCHSIZE **** EXCHANGE BIPOLAR BUFFER SIZE SET TO    10000000
 INFORMATION **** TOLDEE **** SCF TOL ON TOTAL ENERGY SET TO          10
 INFORMATION **** TOLINTEG **** COULOMB AND EXCHANGE SERIES TOLERANCES MODIFIED
 INFORMATION **** MAXCYCLE **** MAX NUMBER OF SCF CYCLES SET TO         200
 INFORMATION **** SMEAR **** FERMI SMEARING ACTIVE
 FERMI SMEARING - TEMPERATURE SMEARING OF FERMI SURFACE  0.1000E-12
 INFORMATION **** SAVEWF **** not fully tested
 INFORMATION **** SPINLOCK **** LOCK IN A GIVEN SPIN STATE
 ALPHA-BETA ELECTRONS LOCKED TO   4 FOR 200 SCF CYCLES
 SSSSSSSSSSSSSSSSSSSSSSSSSSSSSSSSSSSSSSSSSSSSSSSSSSSSSSSSSSSSSSSSSSSSSSSSSSSSSS
 ATOMIC SPINS SET TO (ATOM, AT. N., SPIN)
   1 238 0   2 238 0   3 238 0   4 238 0   5 229 1   6 229 1   7 229 1   8 229 1
   9 208 0  10 208 0  11 208 0  12 208 0  13 208 0  14 208 0  15 208 0  16 208 0
 *******************************************************************************
 N. OF ATOMS PER CELL        16  COULOMB OVERLAP TOL         (T1) 10**   -8
 NUMBER OF SHELLS           136  COULOMB PENETRATION TOL     (T2) 10**   -8
 NUMBER OF AO               400  EXCHANGE OVERLAP TOL        (T3) 10**   -8
 N. OF ELECTRONS PER CELL   132  EXCHANGE PSEUDO OVP (F(G))  (T4) 10**   -8
 CORE ELECTRONS PER CELL      0  EXCHANGE PSEUDO OVP (P(G))  (T5) 10**  -16
 N. OF SYMMETRY OPERATORS    16  POLE ORDER IN MONO ZONE                  4
 *******************************************************************************
 TYPE OF CALCULATION :  UNRESTRICTED OPEN SHELL
 KOHN-SHAM HAMILTONIAN

 (EXCHANGE)[CORRELATION] FUNCTIONAL:(PBEsol GGA)[PBEsol]


 HYBRID EXCHANGE - PERCENTAGE OF FOCK EXCHANGE    25.0000

 SPIN POLARIZED DFT SELECTED
 CORE  PSEUDO POTENTIAL         TOL. ON PSEUDO              (TP) 10**- 6
 SPIN POLARIZATION - ALPHA-BETA =  4 FOR 200 CYCLES

 CAPPA:IS1  4;IS2  4;IS3  4; K PTS MONK NET  18; SYMMOPS:K SPACE  16;G SPACE  16

 *******************************************************************************
 MAX NUMBER OF SCF CYCLES     200  CONVERGENCE ON DELTAP        10**-20
 WEIGHT OF F(I) IN F(I+1)      90% CONVERGENCE ON ENERGY        10**-10
 SPIN POLARIZATION - ALPHA-BETA =  4 FOR 200 CYCLES
 SHRINK. FACT.(MONKH.)    4  4  4  NUMBER OF K POINTS IN THE IBZ     18
 SHRINKING FACTOR(GILAT NET)    8  NUMBER OF K POINTS(GILAT NET)     75
 *******************************************************************************
 *** K POINTS COORDINATES (OBLIQUE COORDINATES IN UNITS OF IS =  4)
   1-R(  0  0  0)   2-C(  1  0  0)   3-R(  2  0  0)   4-C(  1  1  0)
   5-C(  2  1  0)   6-R(  2  2  0)   7-C(  0  0  1)   8-C(  1  0  1)
   9-C(  2  0  1)  10-C(  1  1  1)  11-C(  2  1  1)  12-C(  2  2  1)
  13-R(  0  0  2)  14-C(  1  0  2)  15-R(  2  0  2)  16-C(  1  1  2)
  17-C(  2  1  2)  18-R(  2  2  2)

 DIRECT LATTICE VECTORS COMPON. (A.U.)     RECIP. LATTICE VECTORS COMPON. (A.U.) 
        X            Y            Z              X            Y            Z
   14.8451216    0.0000000    0.0000000      0.4232492    0.0000000    0.0000000
    0.0000000   14.8451216    0.0000000      0.0000000    0.4232492    0.0000000
    0.0000000    0.0000000    6.4889416      0.0000000    0.0000000    0.9682912

 DISK SPACE FOR EIGENVECTORS (FTN 10)     4800000 REALS

 SYMMETRY ADAPTION OF THE BLOCH FUNCTIONS ENABLED
 TTTTTTTTTTTTTTTTTTTTTTTTTTTTTT gordsh1     TELAPSE        1.70 TCPU        0.04

 MATRIX SIZE: P(G) 1263000, F(G)  225436, P(G) IRR   69128, F(G) IRR   29980
 MAX G-VECTOR INDEX FOR 1- AND 2-ELECTRON INTEGRALS 103

 TTTTTTTTTTTTTTTTTTTTTTTTTTTTTT INPUT       TELAPSE        1.76 TCPU        0.11

 NEIGHBORS OF THE NON-EQUIVALENT ATOMS

 N = NUMBER OF NEIGHBORS AT DISTANCE R
    ATOM  N     R/ANG      R/AU   NEIGHBORS (ATOM LABELS AND CELL INDICES)
   1 SR   8     2.6086     4.9295   10 O    0 0 0   10 O    0 0 1   12 O    0 0 1
                                    12 O    0 0 0   14 O    0-1 0   14 O    0-1 1
                                    16 O    0 0 1   16 O    0 0 0
   1 SR   8     3.2652     6.1704    5 CU   0-1 0    5 CU   0-1 1    6 CU   0-1 0
                                     6 CU   0-1 1    7 CU   0 0 1    7 CU   0 0 0
                                     8 CU   0 0 0    8 CU   0 0 1
   1 SR   2     3.4338     6.4889    1 SR   0 0-1    1 SR   0 0 1
   1 SR   4     3.9278     7.4226    3 SR   0 0 0    3 SR   0-1 0    4 SR   0 0 0
                                     4 SR   1 0 0
   1 SR  16     4.7152     8.9104    9 O    0 0 0    9 O    0 0 1    9 O    0-1 0
                                     9 O    0-1 1   11 O    0 0 1   11 O    0 0 0
                                    11 O    1 0 1   11 O    1 0 0   13 O    0-1 0
                                    13 O    0-1 1   13 O    1-1 0   13 O    1-1 1
                                    15 O    0 0 1   15 O    0 0 0   15 O    0-1 1
                                    15 O    0-1 0
   1 SR   8     5.2172     9.8590    3 SR   0 0 1    3 SR   0 0-1    3 SR   0-1-1
                                     3 SR   0-1 1    4 SR   0 0-1    4 SR   0 0 1
                                     4 SR   1 0 1    4 SR   1 0-1

   5 CU   4     1.9639     3.7113   13 O    1 0 0   14 O    0 0 0   15 O    0 0 0
                                    16 O    0 1 0
   5 CU   8     3.2652     6.1704    1 SR   0 1 0    1 SR   0 1-1    2 SR   1 0 0
                                     2 SR   1 0-1    3 SR   0 0-1    3 SR   0 0 0
                                     4 SR   1 1-1    4 SR   1 1 0
   5 CU   2     3.4338     6.4889    5 CU   0 0-1    5 CU   0 0 1
   5 CU   4     3.9278     7.4226    6 CU   0 0 0    6 CU   1 0 0    7 CU   0 1 0
                                     7 CU   0 0 0
   5 CU   8     3.9558     7.4753   13 O    1 0-1   13 O    1 0 1   14 O    0 0-1
                                    14 O    0 0 1   15 O    0 0 1   15 O    0 0-1
                                    16 O    0 1 1   16 O    0 1-1
   5 CU   8     4.3915     8.2987    9 O    0 0 0    9 O    1 0 0   10 O    1 1 0
                                    10 O    0 1 0   11 O    1 1 0   11 O    1 0 0
                                    12 O    0 0 0   12 O    0 1 0

   6 CU   4     1.9639     3.7113    9 O    0 0 0   10 O    0 1 0   13 O    0 0 0
                                    14 O    0 0 0
   6 CU   8     3.2652     6.1704    1 SR   0 1 0    1 SR   0 1-1    2 SR   0 0 0
                                     2 SR   0 0-1    3 SR   0 0-1    3 SR   0 0 0
                                     4 SR   0 1-1    4 SR   0 1 0
   6 CU   2     3.4338     6.4889    6 CU   0 0-1    6 CU   0 0 1
   6 CU   4     3.9278     7.4226    5 CU   0 0 0    5 CU  -1 0 0    8 CU   0 1 0
                                     8 CU   0 0 0
   6 CU   8     3.9558     7.4753    9 O    0 0 1    9 O    0 0-1   10 O    0 1 1
                                    10 O    0 1-1   13 O    0 0-1   13 O    0 0 1
                                    14 O    0 0 1   14 O    0 0-1
   6 CU   8     4.3915     8.2987   11 O    0 1 0   11 O    0 0 0   12 O    0 0 0
                                    12 O    0 1 0   15 O   -1 0 0   15 O    0 0 0
                                    16 O    0 1 0   16 O   -1 1 0

   8 CU   4     1.9639     3.7113    9 O    0 0 0   10 O    0 0 0   11 O    0 0 0
                                    12 O    0 0 0
   8 CU   8     3.2652     6.1704    1 SR   0 0 0    1 SR   0 0-1    2 SR   0 0 0
                                     2 SR   0 0-1    3 SR   0 0-1    3 SR   0 0 0
                                     4 SR   0 0-1    4 SR   0 0 0
   8 CU   2     3.4338     6.4889    8 CU   0 0-1    8 CU   0 0 1
   8 CU   4     3.9278     7.4226    6 CU   0-1 0    6 CU   0 0 0    7 CU   0 0 0
                                     7 CU  -1 0 0
   8 CU   8     3.9558     7.4753    9 O    0 0 1    9 O    0 0-1   10 O    0 0-1
                                    10 O    0 0 1   11 O    0 0-1   11 O    0 0 1
                                    12 O    0 0 1   12 O    0 0-1
   8 CU   8     4.3915     8.2987   13 O    0 0 0   13 O    0-1 0   14 O    0-1 0
                                    14 O    0 0 0   15 O   -1 0 0   15 O    0 0 0
                                    16 O    0 0 0   16 O   -1 0 0

   9 O    2     1.9639     3.7113    6 CU   0 0 0    8 CU   0 0 0
   9 O    4     2.6086     4.9295    2 SR   0 0 0    2 SR   0 0-1    3 SR   0 0 0
                                     3 SR   0 0-1
   9 O    4     2.7774     5.2485   11 O    0 0 0   12 O    0 0 0   13 O    0 0 0
                                    14 O    0 0 0
   9 O    2     3.4338     6.4889    9 O    0 0-1    9 O    0 0 1
   9 O    4     3.9278     7.4226   10 O    0 0 0   10 O    0 1 0   15 O    0 0 0
                                    15 O   -1 0 0
   9 O    4     3.9558     7.4753    6 CU   0 0-1    6 CU   0 0 1    8 CU   0 0-1
                                     8 CU   0 0 1

  13 O    2     1.9639     3.7113    5 CU  -1 0 0    6 CU   0 0 0
  13 O    4     2.6086     4.9295    2 SR   0 0 0    2 SR   0 0-1    4 SR   0 1 0
                                     4 SR   0 1-1
  13 O    4     2.7774     5.2485    9 O    0 0 0   10 O    0 1 0   15 O   -1 0 0
                                    16 O   -1 1 0
  13 O    2     3.4338     6.4889   13 O    0 0-1   13 O    0 0 1
  13 O    4     3.9278     7.4226   11 O    0 1 0   11 O    0 0 0   14 O    0 0 0
                                    14 O   -1 0 0
  13 O    4     3.9558     7.4753    5 CU  -1 0 1    5 CU  -1 0-1    6 CU   0 0 1
                                     6 CU   0 0-1


 SYMMETRY ALLOWED INTERNAL DEGREE(S) OF FREEDOM:   3
 TTTTTTTTTTTTTTTTTTTTTTTTTTTTTT SYMM        TELAPSE        2.31 TCPU        0.62
 TTTTTTTTTTTTTTTTTTTTTTTTTTTTTT INT_SCREEN  TELAPSE        2.31 TCPU        0.62
 INFORMATION **** EXCBUF **** EXCH. BIPO BUFFER: WORDS USED =     3772917

 DFT PARAMETERS

     ATOM       ELECTRONS   NET CHARGE   R(ANGSTROM)
   1 238  SR      0.0000      2.0000     1.18000000
   5 229  CU     17.0000      2.0000     0.73000000
   9 208  O       8.0000     -2.0000     1.40000000

 SIZE OF GRID=      24742
 TTTTTTTTTTTTTTTTTTTTTTTTTTTTTT MAKE_GRID2  TELAPSE        3.80 TCPU        2.11
 BECKE WEIGHT FUNCTION
 RADSAFE =     2.00
 TOLERANCES - DENSITY:10**- 6; POTENTIAL:10**- 9; GRID WGT:10**-14

 RADIAL INTEGRATION  - INTERVALS (POINTS,UPPER LIMIT):            1( 75,  4.0*R)

 ANGULAR INTEGRATION - INTERVALS (ACCURACY LEVEL [N. POINTS] UPPER LIMIT):
  1(  4[  86]   0.2)  2(  8[ 194]   0.5)  3( 12[ 350]   0.9)  4( 16[ 974]   3.5)
  5( 12[ 350]9999.0)
 TTTTTTTTTTTTTTTTTTTTTTTTTTTTTT INT_CALC    TELAPSE        3.83 TCPU        2.13
 EEEEEEEEEE INT_CALC TERMINATION  DATE 29 11 2017 TIME 18:10:18.9

 *******************************************************************************
 Generated by CrystalWriter                                                      
 CRYSTAL - SCF - TYPE OF CALCULATION :  UNRESTRICTED OPEN SHELL
 *******************************************************************************

 CAPPA:IS1  4;IS2  4;IS3  4; K PTS MONK NET  18; SYMMOPS:K SPACE  16;G SPACE  16

 TTTTTTTTTTTTTTTTTTTTTTTTTTTTTT SDIK        TELAPSE        3.89 TCPU        2.18

 AAAAAAAAAAAAAAAAAAAAAAAAAAAAAAAAAAAAAAAAAAAAAAAAAAAAAAAAAAAAAAAAAAAAAAAAAAAAAAA
         ATOMIC WAVEFUNCTION(S)


 NUCLEAR CHARGE 19.0  SYMMETRY SPECIES            S    P    D
 N. ELECTRONS   17.0  NUMBER OF PRIMITIVE GTOS   14    9    7
                      NUMBER OF CONTRACTED GTOS   4    3    3
                      NUMBER OF CLOSED SHELLS     1    1    0
                      OPEN SHELL OCCUPATION       0    0    9

  ZNUC SCFIT  TOTAL HF ENERGY   KINETIC ENERGY   VIRIAL THEOREM ACCURACY
  19.0  24   -1.953432393E+02  1.248337040E+02 -2.564827712E+00  3.3E-06

 NUCLEAR CHARGE  6.0  SYMMETRY SPECIES            S    P
 N. ELECTRONS    8.0  NUMBER OF PRIMITIVE GTOS   10    9
                      NUMBER OF CONTRACTED GTOS   3    3
                      NUMBER OF CLOSED SHELLS     1    1
                      OPEN SHELL OCCUPATION       0    0

  ZNUC SCFIT  TOTAL HF ENERGY   KINETIC ENERGY   VIRIAL THEOREM ACCURACY
   6.0  43   -1.519668598E+01  1.229882609E+01 -2.235620852E+00  4.1E-06

 AAAAAAAAAAAAAAAAAAAAAAAAAAAAAAAAAAAAAAAAAAAAAAAAAAAAAAAAAAAAAAAAAAAAAAAAAAAAAAA

 CHARGE NORMALIZATION FACTOR   1.00000000
 TOTAL ATOMIC CHARGES:
   0.0000000   0.0000000   0.0000000   0.0000000  17.0000000  17.0000000
  17.0000000  17.0000000   8.0000000   8.0000000   8.0000000   8.0000000
   8.0000000   8.0000000   8.0000000   8.0000000
 SUMMED SPIN DENSITY           4.00000000
 TOTAL ATOMIC SPINS  :
   0.0000000   0.0000000   0.0000000   0.0000000   1.0000000   1.0000000
   1.0000000   1.0000000   0.0000000   0.0000000   0.0000000   0.0000000
   0.0000000   0.0000000   0.0000000   0.0000000
 TTTTTTTTTTTTTTTTTTTTTTTTTTTTTT MOQGAD      TELAPSE        3.95 TCPU        2.24
[golub088:58479] 15 more processes have sent help message help-mpi-btl-openib.txt / no device params found
[golub088:58479] Set MCA parameter "orte_base_help_aggregate" to 0 to see all help / error messages
 TTTTTTTTTTTTTTTTTTTTTTTTTTTTTT SHELLXN     TELAPSE       71.05 TCPU       69.34
 TTTTTTTTTTTTTTTTTTTTTTTTTTTTTT MONMO3      TELAPSE       87.85 TCPU       86.14
 NUMERICALLY INTEGRATED DENSITY     68.0000631192     64.0000514117
 TTTTTTTTTTTTTTTTTTTTTTTTTTTTTT NUMDFT      TELAPSE       88.33 TCPU       86.62
 CYC   0 ETOT(AU) -9.198168294556E+02 DETOT -9.20E+02 tst  0.00E+00 PX  1.00E+00
 CYCLE  0 WAVE FUNCTION SAVED IN FORTRAN UNIT 79
 TTTTTTTTTTTTTTTTTTTTTTTTTTTTTT DIIS        TELAPSE       88.41 TCPU       86.66
 TTTTTTTTTTTTTTTTTTTTTTTTTTTTTT FDIK        TELAPSE       88.83 TCPU       87.08
 SPIN LOCKING: NO ENERGY GAP COMPUTED
 TTTTTTTTTTTTTTTTTTTTTTTTTTTTTT PDIG        TELAPSE       88.91 TCPU       87.15
 CHARGE NORMALIZATION FACTOR   1.00000000
 TOTAL ATOMIC CHARGES:
   0.1561370   0.1561370   0.1561370   0.1561370  18.2379144  18.2379142
  18.2379142  18.2379156   7.3029740   7.3029740   7.3029740   7.3029740
   7.3029744   7.3029744   7.3029744   7.3029744
 SUMMED SPIN DENSITY           4.00000000
 TOTAL ATOMIC SPINS  :
   0.0002311   0.0002311   0.0002311   0.0002311   0.5405127   0.5405125
   0.5405125   0.5405126   0.2296282   0.2296282   0.2296282   0.2296282
   0.2296282   0.2296282   0.2296282   0.2296282
 TTTTTTTTTTTTTTTTTTTTTTTTTTTTTT MOQGAD      TELAPSE       88.93 TCPU       87.18
 TTTTTTTTTTTTTTTTTTTTTTTTTTTTTT SHELLXN     TELAPSE      160.42 TCPU      158.67
 TTTTTTTTTTTTTTTTTTTTTTTTTTTTTT MONMO3      TELAPSE      178.33 TCPU      176.59
 NUMERICALLY INTEGRATED DENSITY     68.0000510134     64.0000458732
 TTTTTTTTTTTTTTTTTTTTTTTTTTTTTT NUMDFT      TELAPSE      179.79 TCPU      178.04
 CYC   1 ETOT(AU) -9.202632991755E+02 DETOT -4.46E-01 tst  0.00E+00 PX  1.00E+00
 CYCLE  1 WAVE FUNCTION SAVED IN FORTRAN UNIT 79
 TTTTTTTTTTTTTTTTTTTTTTTTTTTTTT DIIS        TELAPSE      179.89 TCPU      178.13
 DIIS TEST: 0.12447E+00 AT SCF   CYCLE   1 - MIX   90 %
 TTTTTTTTTTTTTTTTTTTTTTTTTTTTTT FDIK        TELAPSE      180.02 TCPU      178.24
 SPIN LOCKING: NO ENERGY GAP COMPUTED
 TTTTTTTTTTTTTTTTTTTTTTTTTTTTTT PDIG        TELAPSE      180.09 TCPU      178.32
 CHARGE NORMALIZATION FACTOR   1.00000000
 TOTAL ATOMIC CHARGES:
   0.1576980   0.1576980   0.1576980   0.1576980  18.2019420  18.2019411
  18.2019411  18.2019409   7.3201804   7.3201804   7.3201804   7.3201804
   7.3201803   7.3201803   7.3201803   7.3201803
 SUMMED SPIN DENSITY           4.00000000
 TOTAL ATOMIC SPINS  :
  -0.0002064  -0.0002064  -0.0002064  -0.0002064   0.5564230   0.5564214
   0.5564214   0.5564250   0.2218916   0.2218916   0.2218916   0.2218916
   0.2218921   0.2218921   0.2218921   0.2218921
 TTTTTTTTTTTTTTTTTTTTTTTTTTTTTT MOQGAD      TELAPSE      180.12 TCPU      178.35
 TTTTTTTTTTTTTTTTTTTTTTTTTTTTTT SHELLXN     TELAPSE      251.62 TCPU      249.86
 TTTTTTTTTTTTTTTTTTTTTTTTTTTTTT MONMO3      TELAPSE      269.41 TCPU      267.65
 NUMERICALLY INTEGRATED DENSITY     68.0000498791     64.0000439201
 TTTTTTTTTTTTTTTTTTTTTTTTTTTTTT NUMDFT      TELAPSE      270.81 TCPU      269.05
 CYC   2 ETOT(AU) -9.202762071582E+02 DETOT -1.29E-02 tst  3.96E-04 PX  2.51E-02
 CYCLE  2 WAVE FUNCTION SAVED IN FORTRAN UNIT 79
 TTTTTTTTTTTTTTTTTTTTTTTTTTTTTT DIIS        TELAPSE      270.90 TCPU      269.13
 DIIS TEST: 0.94341E-01 AT SCF   CYCLE   2 - DIIS ACTIVE - HISTORY:     2 CYCLES
 TTTTTTTTTTTTTTTTTTTTTTTTTTTTTT FDIK        TELAPSE      271.02 TCPU      269.25
 SPIN LOCKING: NO ENERGY GAP COMPUTED
 TTTTTTTTTTTTTTTTTTTTTTTTTTTTTT PDIG        TELAPSE      271.10 TCPU      269.33
 CHARGE NORMALIZATION FACTOR   1.00000000
 TOTAL ATOMIC CHARGES:
   0.1743110   0.1743110   0.1743110   0.1743110  17.9985492  17.9986053
  17.9986053  17.9985235   7.4135433   7.4135433   7.4135433   7.4135433
   7.4135749   7.4135749   7.4135749   7.4135749
 SUMMED SPIN DENSITY           4.00000000
 TOTAL ATOMIC SPINS  :
  -0.0043581  -0.0043581  -0.0043581  -0.0043581   0.6509294   0.6509211
   0.6509211   0.6509821   0.1767013   0.1767013   0.1767013   0.1767013
   0.1767184   0.1767184   0.1767184   0.1767184
 TTTTTTTTTTTTTTTTTTTTTTTTTTTTTT MOQGAD      TELAPSE      271.13 TCPU      269.36
 TTTTTTTTTTTTTTTTTTTTTTTTTTTTTT SHELLXN     TELAPSE      342.62 TCPU      340.85
 TTTTTTTTTTTTTTTTTTTTTTTTTTTTTT MONMO3      TELAPSE      360.70 TCPU      358.94
 NUMERICALLY INTEGRATED DENSITY     68.0000370550     64.0000269359
 TTTTTTTTTTTTTTTTTTTTTTTTTTTTTT NUMDFT      TELAPSE      362.09 TCPU      360.33
 CYC   3 ETOT(AU) -9.203404445523E+02 DETOT -6.42E-02 tst  1.04E-02 PX  1.78E-01
 CYCLE  3 WAVE FUNCTION SAVED IN FORTRAN UNIT 79
 TTTTTTTTTTTTTTTTTTTTTTTTTTTTTT DIIS        TELAPSE      362.19 TCPU      360.40
 DIIS TEST: 0.13375E-01 AT SCF   CYCLE   3 - DIIS ACTIVE - HISTORY:     3 CYCLES
 TTTTTTTTTTTTTTTTTTTTTTTTTTTTTT FDIK        TELAPSE      362.31 TCPU      360.53
 SPIN LOCKING: NO ENERGY GAP COMPUTED
 TTTTTTTTTTTTTTTTTTTTTTTTTTTTTT PDIG        TELAPSE      362.39 TCPU      360.60
 CHARGE NORMALIZATION FACTOR   1.00000000
 TOTAL ATOMIC CHARGES:
   0.1707014   0.1707014   0.1707014   0.1707014  18.0054533  18.0054404
  18.0054404  18.0054602   7.4119235   7.4119235   7.4119235   7.4119235
   7.4119265   7.4119265   7.4119265   7.4119265
 SUMMED SPIN DENSITY           4.00000000
 TOTAL ATOMIC SPINS  :
  -0.0041954  -0.0041954  -0.0041954  -0.0041954   0.6874716   0.6874792
   0.6874792   0.6874780   0.1583585   0.1583585   0.1583585   0.1583585
   0.1583599   0.1583599   0.1583599   0.1583599
 TTTTTTTTTTTTTTTTTTTTTTTTTTTTTT MOQGAD      TELAPSE      362.41 TCPU      360.63
 TTTTTTTTTTTTTTTTTTTTTTTTTTTTTT SHELLXN     TELAPSE      433.94 TCPU      432.11
 TTTTTTTTTTTTTTTTTTTTTTTTTTTTTT MONMO3      TELAPSE      451.87 TCPU      450.02
 NUMERICALLY INTEGRATED DENSITY     68.0000379954     64.0000271429
 TTTTTTTTTTTTTTTTTTTTTTTTTTTTTT NUMDFT      TELAPSE      453.26 TCPU      451.41
 CYC   4 ETOT(AU) -9.203445849180E+02 DETOT -4.14E-03 tst  1.02E-03 PX  4.39E-02
 CYCLE  4 WAVE FUNCTION SAVED IN FORTRAN UNIT 79
 TTTTTTTTTTTTTTTTTTTTTTTTTTTTTT DIIS        TELAPSE      453.36 TCPU      451.49
 DIIS TEST: 0.10349E-01 AT SCF   CYCLE   4 - DIIS ACTIVE - HISTORY:     4 CYCLES
 TTTTTTTTTTTTTTTTTTTTTTTTTTTTTT FDIK        TELAPSE      453.48 TCPU      451.61
 SPIN LOCKING: NO ENERGY GAP COMPUTED
 TTTTTTTTTTTTTTTTTTTTTTTTTTTTTT PDIG        TELAPSE      453.56 TCPU      451.69
 CHARGE NORMALIZATION FACTOR   1.00000000
 TOTAL ATOMIC CHARGES:
   0.1724448   0.1724448   0.1724448   0.1724448  18.0149021  18.0148675
  18.0148675  18.0148994   7.4063366   7.4063366   7.4063366   7.4063366
   7.4063346   7.4063346   7.4063346   7.4063346
 SUMMED SPIN DENSITY           4.00000000
 TOTAL ATOMIC SPINS  :
  -0.0039399  -0.0039399  -0.0039399  -0.0039399   0.6976091   0.6976229
   0.6976229   0.6976176   0.1531581   0.1531581   0.1531581   0.1531581
   0.1531636   0.1531636   0.1531636   0.1531636
 TTTTTTTTTTTTTTTTTTTTTTTTTTTTTT MOQGAD      TELAPSE      453.59 TCPU      451.72
 TTTTTTTTTTTTTTTTTTTTTTTTTTTTTT SHELLXN     TELAPSE      525.07 TCPU      523.22
 TTTTTTTTTTTTTTTTTTTTTTTTTTTTTT MONMO3      TELAPSE      542.83 TCPU      540.97
 NUMERICALLY INTEGRATED DENSITY     68.0000375432     64.0000266622
 TTTTTTTTTTTTTTTTTTTTTTTTTTTTTT NUMDFT      TELAPSE      544.22 TCPU      542.36
 CYC   5 ETOT(AU) -9.203462580007E+02 DETOT -1.67E-03 tst  6.43E-05 PX  1.56E-02
 CYCLE  5 WAVE FUNCTION SAVED IN FORTRAN UNIT 79
 TTTTTTTTTTTTTTTTTTTTTTTTTTTTTT DIIS        TELAPSE      544.35 TCPU      542.47
 DIIS TEST: 0.77859E-03 AT SCF   CYCLE   5 - DIIS ACTIVE - HISTORY:     5 CYCLES
 TTTTTTTTTTTTTTTTTTTTTTTTTTTTTT FDIK        TELAPSE      544.47 TCPU      542.59
 SPIN LOCKING: NO ENERGY GAP COMPUTED
 TTTTTTTTTTTTTTTTTTTTTTTTTTTTTT PDIG        TELAPSE      544.55 TCPU      542.67
 CHARGE NORMALIZATION FACTOR   1.00000000
 TOTAL ATOMIC CHARGES:
   0.1711460   0.1711460   0.1711460   0.1711460  18.0111433  18.0111391
  18.0111391  18.0111445   7.4088558   7.4088558   7.4088558   7.4088558
   7.4088567   7.4088567   7.4088567   7.4088567
 SUMMED SPIN DENSITY           4.00000000
 TOTAL ATOMIC SPINS  :
  -0.0038188  -0.0038188  -0.0038188  -0.0038188   0.7024322   0.7024342
   0.7024342   0.7024335   0.1506928   0.1506928   0.1506928   0.1506928
   0.1506925   0.1506925   0.1506925   0.1506925
 TTTTTTTTTTTTTTTTTTTTTTTTTTTTTT MOQGAD      TELAPSE      544.58 TCPU      542.70
 TTTTTTTTTTTTTTTTTTTTTTTTTTTTTT SHELLXN     TELAPSE      616.08 TCPU      614.21
 TTTTTTTTTTTTTTTTTTTTTTTTTTTTTT MONMO3      TELAPSE      633.96 TCPU      632.09
 NUMERICALLY INTEGRATED DENSITY     68.0000379982     64.0000271821
 TTTTTTTTTTTTTTTTTTTTTTTTTTTTTT NUMDFT      TELAPSE      635.36 TCPU      633.49
 CYC   6 ETOT(AU) -9.203464207723E+02 DETOT -1.63E-04 tst  9.95E-06 PX  5.86E-03
 CYCLE  6 WAVE FUNCTION SAVED IN FORTRAN UNIT 79
 TTTTTTTTTTTTTTTTTTTTTTTTTTTTTT DIIS        TELAPSE      635.50 TCPU      633.61
 DIIS TEST: 0.26314E-03 AT SCF   CYCLE   6 - DIIS ACTIVE - HISTORY:     6 CYCLES
 TTTTTTTTTTTTTTTTTTTTTTTTTTTTTT FDIK        TELAPSE      635.65 TCPU      633.76
 SPIN LOCKING: NO ENERGY GAP COMPUTED
 TTTTTTTTTTTTTTTTTTTTTTTTTTTTTT PDIG        TELAPSE      635.73 TCPU      633.83
 CHARGE NORMALIZATION FACTOR   1.00000000
 TOTAL ATOMIC CHARGES:
   0.1716551   0.1716551   0.1716551   0.1716551  18.0106520  18.0106531
  18.0106531  18.0106533   7.4088455   7.4088455   7.4088455   7.4088455
   7.4088465   7.4088465   7.4088465   7.4088465
 SUMMED SPIN DENSITY           4.00000000
 TOTAL ATOMIC SPINS  :
  -0.0037017  -0.0037017  -0.0037017  -0.0037017   0.7066468   0.7066470
   0.7066470   0.7066471   0.1485275   0.1485275   0.1485275   0.1485275
   0.1485272   0.1485272   0.1485272   0.1485272
 TTTTTTTTTTTTTTTTTTTTTTTTTTTTTT MOQGAD      TELAPSE      635.75 TCPU      633.86
 TTTTTTTTTTTTTTTTTTTTTTTTTTTTTT SHELLXN     TELAPSE      717.68 TCPU      715.80
 TTTTTTTTTTTTTTTTTTTTTTTTTTTTTT MONMO3      TELAPSE      735.44 TCPU      733.57
 NUMERICALLY INTEGRATED DENSITY     68.0000379202     64.0000271528
 TTTTTTTTTTTTTTTTTTTTTTTTTTTTTT NUMDFT      TELAPSE      736.83 TCPU      734.96
 CYC   7 ETOT(AU) -9.203464903088E+02 DETOT -6.95E-05 tst  6.93E-06 PX  4.00E-03
 CYCLE  7 WAVE FUNCTION SAVED IN FORTRAN UNIT 79
 TTTTTTTTTTTTTTTTTTTTTTTTTTTTTT DIIS        TELAPSE      736.94 TCPU      735.03
 DIIS TEST: 0.14279E-04 AT SCF   CYCLE   7 - DIIS ACTIVE - HISTORY:     7 CYCLES
 TTTTTTTTTTTTTTTTTTTTTTTTTTTTTT FDIK        TELAPSE      737.08 TCPU      735.17
 SPIN LOCKING: NO ENERGY GAP COMPUTED
 TTTTTTTTTTTTTTTTTTTTTTTTTTTTTT PDIG        TELAPSE      737.16 TCPU      735.25
 CHARGE NORMALIZATION FACTOR   1.00000000
 TOTAL ATOMIC CHARGES:
   0.1716545   0.1716545   0.1716545   0.1716545  18.0105848  18.0105653
  18.0105653  18.0105859   7.4088848   7.4088848   7.4088848   7.4088848
   7.4088853   7.4088853   7.4088853   7.4088853
 SUMMED SPIN DENSITY           4.00000000
 TOTAL ATOMIC SPINS  :
  -0.0036188  -0.0036188  -0.0036188  -0.0036188   0.7083874   0.7083999
   0.7083999   0.7083867   0.1476131   0.1476131   0.1476131   0.1476131
   0.1476123   0.1476123   0.1476123   0.1476123
 TTTTTTTTTTTTTTTTTTTTTTTTTTTTTT MOQGAD      TELAPSE      737.19 TCPU      735.28
 TTTTTTTTTTTTTTTTTTTTTTTTTTTTTT SHELLXN     TELAPSE      808.65 TCPU      806.75
 TTTTTTTTTTTTTTTTTTTTTTTTTTTTTT MONMO3      TELAPSE      835.28 TCPU      833.39
 NUMERICALLY INTEGRATED DENSITY     68.0000379058     64.0000272323
 TTTTTTTTTTTTTTTTTTTTTTTTTTTTTT NUMDFT      TELAPSE      836.69 TCPU      834.79
 CYC   8 ETOT(AU) -9.203464948387E+02 DETOT -4.53E-06 tst  5.05E-07 PX  1.32E-03
 CYCLE  8 WAVE FUNCTION SAVED IN FORTRAN UNIT 79
 TTTTTTTTTTTTTTTTTTTTTTTTTTTTTT DIIS        TELAPSE      836.78 TCPU      834.87
 DIIS TEST: 0.92568E-06 AT SCF   CYCLE   8 - DIIS ACTIVE - HISTORY:     8 CYCLES
 TTTTTTTTTTTTTTTTTTTTTTTTTTTTTT FDIK        TELAPSE      836.94 TCPU      835.03
 SPIN LOCKING: NO ENERGY GAP COMPUTED
 TTTTTTTTTTTTTTTTTTTTTTTTTTTTTT PDIG        TELAPSE      837.01 TCPU      835.10
 CHARGE NORMALIZATION FACTOR   1.00000000
 TOTAL ATOMIC CHARGES:
   0.1716453   0.1716453   0.1716453   0.1716453  18.0106161  18.0106879
  18.0106879  18.0106179   7.4088510   7.4088510   7.4088510   7.4088510
   7.4088513   7.4088513   7.4088513   7.4088513
 SUMMED SPIN DENSITY           4.00000000
 TOTAL ATOMIC SPINS  :
  -0.0035806  -0.0035806  -0.0035806  -0.0035806   0.7087816   0.7087524
   0.7087524   0.7087812   0.1474069   0.1474069   0.1474069   0.1474069
   0.1474068   0.1474068   0.1474068   0.1474068
 TTTTTTTTTTTTTTTTTTTTTTTTTTTTTT MOQGAD      TELAPSE      837.04 TCPU      835.13
 TTTTTTTTTTTTTTTTTTTTTTTTTTTTTT SHELLXN     TELAPSE      908.84 TCPU      906.72
 TTTTTTTTTTTTTTTTTTTTTTTTTTTTTT MONMO3      TELAPSE      926.34 TCPU      924.20
 NUMERICALLY INTEGRATED DENSITY     68.0000378850     64.0000272550
 TTTTTTTTTTTTTTTTTTTTTTTTTTTTTT NUMDFT      TELAPSE      927.72 TCPU      925.58
 CYC   9 ETOT(AU) -9.203464950315E+02 DETOT -1.93E-07 tst  1.10E-08 PX  2.92E-04
 CYCLE  9 WAVE FUNCTION SAVED IN FORTRAN UNIT 79
 TTTTTTTTTTTTTTTTTTTTTTTTTTTTTT DIIS        TELAPSE      927.85 TCPU      925.69
 DIIS TEST: 0.58996E-07 AT SCF   CYCLE   9 - DIIS ACTIVE - HISTORY:     9 CYCLES
 TTTTTTTTTTTTTTTTTTTTTTTTTTTTTT FDIK        TELAPSE      927.98 TCPU      925.82
 SPIN LOCKING: NO ENERGY GAP COMPUTED
 TTTTTTTTTTTTTTTTTTTTTTTTTTTTTT PDIG        TELAPSE      928.06 TCPU      925.90
 CHARGE NORMALIZATION FACTOR   1.00000000
 TOTAL ATOMIC CHARGES:
   0.1716438   0.1716438   0.1716438   0.1716438  18.0107483  18.0105443
  18.0105443  18.0107487   7.4088547   7.4088547   7.4088547   7.4088547
   7.4088550   7.4088550   7.4088550   7.4088550
 SUMMED SPIN DENSITY           4.00000000
 TOTAL ATOMIC SPINS  :
  -0.0035682  -0.0035682  -0.0035682  -0.0035682   0.7087761   0.7088635
   0.7088635   0.7087764   0.1473742   0.1473742   0.1473742   0.1473742
   0.1473742   0.1473742   0.1473742   0.1473742
 TTTTTTTTTTTTTTTTTTTTTTTTTTTTTT MOQGAD      TELAPSE      928.09 TCPU      925.93
 TTTTTTTTTTTTTTTTTTTTTTTTTTTTTT SHELLXN     TELAPSE      999.56 TCPU      997.41
 TTTTTTTTTTTTTTTTTTTTTTTTTTTTTT MONMO3      TELAPSE     1017.44 TCPU     1015.29
 NUMERICALLY INTEGRATED DENSITY     68.0000378791     64.0000272599
 TTTTTTTTTTTTTTTTTTTTTTTTTTTTTT NUMDFT      TELAPSE     1018.84 TCPU     1016.70
 CYC  10 ETOT(AU) -9.203464950269E+02 DETOT  4.67E-09 tst  2.34E-09 PX  7.47E-05
 CYCLE 10 WAVE FUNCTION SAVED IN FORTRAN UNIT 79
 TTTTTTTTTTTTTTTTTTTTTTTTTTTTTT DIIS        TELAPSE     1018.94 TCPU     1016.77
 DIIS TEST: 0.28645E-06 AT SCF   CYCLE  10 - DIIS ACTIVE - HISTORY:    10 CYCLES
 TTTTTTTTTTTTTTTTTTTTTTTTTTTTTT FDIK        TELAPSE     1019.06 TCPU     1016.89
 SPIN LOCKING: NO ENERGY GAP COMPUTED
 TTTTTTTTTTTTTTTTTTTTTTTTTTTTTT PDIG        TELAPSE     1019.13 TCPU     1016.96
 CHARGE NORMALIZATION FACTOR   1.00000000
 TOTAL ATOMIC CHARGES:
   0.1716438   0.1716438   0.1716438   0.1716438  18.0106367  18.0106527
  18.0106527  18.0106374   7.4088555   7.4088555   7.4088555   7.4088555
   7.4088558   7.4088558   7.4088558   7.4088558
 SUMMED SPIN DENSITY           4.00000000
 TOTAL ATOMIC SPINS  :
  -0.0035656  -0.0035656  -0.0035656  -0.0035656   0.7088307   0.7088247
   0.7088247   0.7088308   0.1473689   0.1473689   0.1473689   0.1473689
   0.1473689   0.1473689   0.1473689   0.1473689
 TTTTTTTTTTTTTTTTTTTTTTTTTTTTTT MOQGAD      TELAPSE     1019.16 TCPU     1016.99
 TTTTTTTTTTTTTTTTTTTTTTTTTTTTTT SHELLXN     TELAPSE     1090.66 TCPU     1088.48
 TTTTTTTTTTTTTTTTTTTTTTTTTTTTTT MONMO3      TELAPSE     1108.41 TCPU     1106.24
 NUMERICALLY INTEGRATED DENSITY     68.0000378780     64.0000272607
 TTTTTTTTTTTTTTTTTTTTTTTTTTTTTT NUMDFT      TELAPSE     1109.82 TCPU     1107.65
 CYC  11 ETOT(AU) -9.203464950607E+02 DETOT -3.38E-08 tst  1.50E-09 PX  5.49E-05
 CYCLE 11 WAVE FUNCTION SAVED IN FORTRAN UNIT 79
 TTTTTTTTTTTTTTTTTTTTTTTTTTTTTT DIIS        TELAPSE     1109.92 TCPU     1107.73
 DIIS TEST: 0.30180E-08 AT SCF   CYCLE  11 - DIIS ACTIVE - HISTORY:    11 CYCLES
 TTTTTTTTTTTTTTTTTTTTTTTTTTTTTT FDIK        TELAPSE     1110.07 TCPU     1107.88
 SPIN LOCKING: NO ENERGY GAP COMPUTED
 TTTTTTTTTTTTTTTTTTTTTTTTTTTTTT PDIG        TELAPSE     1110.14 TCPU     1107.96
 CHARGE NORMALIZATION FACTOR   1.00000000
 TOTAL ATOMIC CHARGES:
   0.1716441   0.1716441   0.1716441   0.1716441  18.0106427  18.0106412
  18.0106412  18.0106454   7.4088564   7.4088564   7.4088564   7.4088564
   7.4088569   7.4088569   7.4088569   7.4088569
 SUMMED SPIN DENSITY           4.00000000
 TOTAL ATOMIC SPINS  :
  -0.0035615  -0.0035615  -0.0035615  -0.0035615   0.7088412   0.7088413
   0.7088413   0.7088405   0.1473602   0.1473602   0.1473602   0.1473602
   0.1473601   0.1473601   0.1473601   0.1473601
 TTTTTTTTTTTTTTTTTTTTTTTTTTTTTT MOQGAD      TELAPSE     1110.17 TCPU     1107.99
 TTTTTTTTTTTTTTTTTTTTTTTTTTTTTT SHELLXN     TELAPSE     1182.47 TCPU     1179.57
 TTTTTTTTTTTTTTTTTTTTTTTTTTTTTT MONMO3      TELAPSE     1199.49 TCPU     1196.59
 NUMERICALLY INTEGRATED DENSITY     68.0000378761     64.0000272622
 TTTTTTTTTTTTTTTTTTTTTTTTTTTTTT NUMDFT      TELAPSE     1200.87 TCPU     1197.97
 CYC  12 ETOT(AU) -9.203464950621E+02 DETOT -1.47E-09 tst  4.32E-11 PX  1.77E-05
 CYCLE 12 WAVE FUNCTION SAVED IN FORTRAN UNIT 79
 TTTTTTTTTTTTTTTTTTTTTTTTTTTTTT DIIS        TELAPSE     1200.96 TCPU     1198.05
 DIIS TEST: 0.10893E-09 AT SCF   CYCLE  12 - DIIS ACTIVE - HISTORY:    12 CYCLES
 TTTTTTTTTTTTTTTTTTTTTTTTTTTTTT FDIK        TELAPSE     1201.11 TCPU     1198.19
 SPIN LOCKING: NO ENERGY GAP COMPUTED
 TTTTTTTTTTTTTTTTTTTTTTTTTTTTTT PDIG        TELAPSE     1201.19 TCPU     1198.27
 CHARGE NORMALIZATION FACTOR   1.00000000
 TOTAL ATOMIC CHARGES:
   0.1716441   0.1716441   0.1716441   0.1716441  18.0106434  18.0106421
  18.0106421  18.0106401   7.4088571   7.4088571   7.4088571   7.4088571
   7.4088569   7.4088569   7.4088569   7.4088569
 SUMMED SPIN DENSITY           4.00000000
 TOTAL ATOMIC SPINS  :
  -0.0035601  -0.0035601  -0.0035601  -0.0035601   0.7088426   0.7088436
   0.7088436   0.7088444   0.1473581   0.1473581   0.1473581   0.1473581
   0.1473584   0.1473584   0.1473584   0.1473584
 TTTTTTTTTTTTTTTTTTTTTTTTTTTTTT MOQGAD      TELAPSE     1201.22 TCPU     1198.30
 TTTTTTTTTTTTTTTTTTTTTTTTTTTTTT SHELLXN     TELAPSE     1272.91 TCPU     1269.91
 TTTTTTTTTTTTTTTTTTTTTTTTTTTTTT MONMO3      TELAPSE     1290.46 TCPU     1287.45
 NUMERICALLY INTEGRATED DENSITY     68.0000378756     64.0000272628
 TTTTTTTTTTTTTTTTTTTTTTTTTTTTTT NUMDFT      TELAPSE     1291.86 TCPU     1288.84
 CYC  13 ETOT(AU) -9.203464950624E+02 DETOT -3.14E-10 tst  3.47E-12 PX  5.04E-06
 CYCLE 13 WAVE FUNCTION SAVED IN FORTRAN UNIT 79
 TTTTTTTTTTTTTTTTTTTTTTTTTTTTTT DIIS        TELAPSE     1291.95 TCPU     1288.91
 DIIS TEST: 0.10989E-09 AT SCF   CYCLE  13 - DIIS ACTIVE - HISTORY:    13 CYCLES
 TTTTTTTTTTTTTTTTTTTTTTTTTTTTTT FDIK        TELAPSE     1292.09 TCPU     1289.05
 SPIN LOCKING: NO ENERGY GAP COMPUTED
 TTTTTTTTTTTTTTTTTTTTTTTTTTTTTT PDIG        TELAPSE     1292.17 TCPU     1289.12
 CHARGE NORMALIZATION FACTOR   1.00000000
 TOTAL ATOMIC CHARGES:
   0.1716440   0.1716440   0.1716440   0.1716440  18.0106401  18.0106414
  18.0106414  18.0106444   7.4088567   7.4088567   7.4088567   7.4088567
   7.4088575   7.4088575   7.4088575   7.4088575
 SUMMED SPIN DENSITY           4.00000000
 TOTAL ATOMIC SPINS  :
  -0.0035599  -0.0035599  -0.0035599  -0.0035599   0.7088445   0.7088439
   0.7088439   0.7088432   0.1473581   0.1473581   0.1473581   0.1473581
   0.1473579   0.1473579   0.1473579   0.1473579
 TTTTTTTTTTTTTTTTTTTTTTTTTTTTTT MOQGAD      TELAPSE     1292.20 TCPU     1289.15
 TTTTTTTTTTTTTTTTTTTTTTTTTTTTTT SHELLXN     TELAPSE     1363.73 TCPU     1360.67
 TTTTTTTTTTTTTTTTTTTTTTTTTTTTTT MONMO3      TELAPSE     1381.51 TCPU     1378.46
 NUMERICALLY INTEGRATED DENSITY     68.0000378756     64.0000272629
 TTTTTTTTTTTTTTTTTTTTTTTTTTTTTT NUMDFT      TELAPSE     1382.92 TCPU     1379.86
 CYC  14 ETOT(AU) -9.203464950625E+02 DETOT -1.85E-11 tst  8.01E-13 PX  2.14E-06
 CYCLE 14 WAVE FUNCTION SAVED IN FORTRAN UNIT 79
 TTTTTTTTTTTTTTTTTTTTTTTTTTTTTT DIIS        TELAPSE     1383.01 TCPU     1379.93
 DIIS TEST: 0.39693E-10 AT SCF   CYCLE  14 - DIIS ACTIVE - HISTORY:    14 CYCLES
 TTTTTTTTTTTTTTTTTTTTTTTTTTTTTT FDIK        TELAPSE     1383.14 TCPU     1380.05
 SPIN LOCKING: NO ENERGY GAP COMPUTED
 TTTTTTTTTTTTTTTTTTTTTTTTTTTTTT PDIG        TELAPSE     1383.21 TCPU     1380.13
 CHARGE NORMALIZATION FACTOR   1.00000000
 TOTAL ATOMIC CHARGES:
   0.1716440   0.1716440   0.1716440   0.1716440  18.0106422  18.0106410
  18.0106410  18.0106431   7.4088570   7.4088570   7.4088570   7.4088570
   7.4088572   7.4088572   7.4088572   7.4088572
 SUMMED SPIN DENSITY           4.00000000
 TOTAL ATOMIC SPINS  :
  -0.0035598  -0.0035598  -0.0035598  -0.0035598   0.7088440   0.7088442
   0.7088442   0.7088441   0.1473578   0.1473578   0.1473578   0.1473578
   0.1473578   0.1473578   0.1473578   0.1473578
 TTTTTTTTTTTTTTTTTTTTTTTTTTTTTT MOQGAD      TELAPSE     1383.24 TCPU     1380.16
 TTTTTTTTTTTTTTTTTTTTTTTTTTTTTT SHELLXN     TELAPSE     1454.70 TCPU     1451.62
 +++ ENERGIES IN A.U. +++
 ::: EXT EL-POLE                                  -4.6806087804949E+03
 ::: EXT EL-SPHEROPOLE                             2.2840038853481E+01
 ::: BIELET ZONE E-E                               5.0970068839378E+03
 ::: TOTAL E-E                                     4.3923814229642E+02
 ::: TOTAL E-N + N-E                              -1.4608894433329E+03
 ::: TOTAL N-N                                    -4.1431339568884E+02
 ::: KINETIC ENERGY                                5.9615148612960E+02
 ::: PSEUDO TOTAL   ENERGY                        -8.3981321059576E+02
 ::: VIRIAL COEFFICIENT                            8.3031496176625E-01
 TTTTTTTTTTTTTTTTTTTTTTTTTTTTTT MONMO3      TELAPSE     1472.69 TCPU     1469.61
 NUMERICALLY INTEGRATED DENSITY     68.0000378755     64.0000272629
 TTTTTTTTTTTTTTTTTTTTTTTTTTTTTT NUMDFT      TELAPSE     1474.08 TCPU     1471.00
 CYC  15 ETOT(AU) -9.203464950625E+02 DETOT -1.40E-11 tst  1.51E-13 PX  2.14E-06

 == SCF ENDED - CONVERGENCE ON ENERGY      E(AU) -9.2034649506248E+02 CYCLES  15


 ENERGY EXPRESSION=HARTREE+FOCK EXCH*0.25000+(PBESOL     EXCH)*0.75000+PBESOL     CORR

 FINITE TEMPERATURE DFT CALCULATION 
 TEMPERATURE      (T)    1.000000000000E-13 HARTREE 
 ENERGY           (E)   -9.203464950625E+02
 FREE ENERGY      (F)   -9.203464950625E+02
 ELECTRON ENTROPY (S)    0.000000000000E+00
 (E(T)+F(T))/2    (E0)  -9.203464950625E+02


 TOTAL ENERGY(DFT)(AU)( 15) -9.2034649506248E+02 DE-1.4E-11 tester 1.5E-13
 TTTTTTTTTTTTTTTTTTTTTTTTTTTTTT EDFT        TELAPSE     1474.09 TCPU     1471.00
 EIGENVECTORS IN FORTRAN UNIT 10
 TTTTTTTTTTTTTTTTTTTTTTTTTTTTTT END         TELAPSE     1474.43 TCPU     1471.34
 EEEEEEEEEE TERMINATION  DATE 29 11 2017 TIME 18:34:49.5
NODE    0 CPU TIME =      1471.344
NODE    1 CPU TIME =      1470.930
NODE    2 CPU TIME =      1472.282
NODE    3 CPU TIME =      1469.536
NODE    4 CPU TIME =      1470.141
NODE    5 CPU TIME =      1471.889
NODE    6 CPU TIME =      1468.707
NODE    7 CPU TIME =      1470.006
NODE    8 CPU TIME =      1472.213
NODE    9 CPU TIME =      1470.996
NODE   10 CPU TIME =      1472.046
NODE   11 CPU TIME =      1471.620
NODE   12 CPU TIME =      1471.910
NODE   13 CPU TIME =      1470.625
NODE   14 CPU TIME =      1472.185
NODE   15 CPU TIME =      1471.497
    TOTAL CPU TIME =     23537.929
