--------------------------------------------------------------------------
[[31396,1],5]: A high-performance Open MPI point-to-point messaging module
was unable to find any relevant network interfaces:

Module: OpenFabrics (openib)
  Host: golub052

Another transport will be used instead, although this may result in
lower performance.
--------------------------------------------------------------------------
 PROCESS            8  OF           16  WORKING
 PROCESS            7  OF           16  WORKING
 PROCESS            2  OF           16  WORKING
 PROCESS            9  OF           16  WORKING
 PROCESS           10  OF           16  WORKING
 PROCESS           11  OF           16  WORKING
 PROCESS            0  OF           16  WORKING

         
 *******************************************************************************
 *                                                                             *
 *                               CRYSTAL17                                     *
 *                      public : 1.0.1 - Jun 21st, 2017                        *
 *                       HTTP://WWW.CRYSTAL.UNITO.IT                           *
 *                                                                             *
 *                              MAIN AUTHORS                                   *
 *                                                                             *
 *  R. DOVESI(1,11), V.R. SAUNDERS(2), C. ROETTI(1,11), R. ORLANDO(1,11),      *
 *  C.M. ZICOVICH-WILSON(1,3), F. PASCALE(4), B. CIVALLERI(1,11),              *
 *  K. DOLL(5), N.M. HARRISON(2,6), I.J. BUSH(7), Ph. D'ARCO(8),               *
 *  M. LLUNELL(9), M. CAUSA'(10), Y. NOEL(8), L. MASCHIO(1,11), A. ERBA(1,11)  *
 *  M. RE'RAT(14), S. CASASSA(1,11)                                            *
 *                                                                             *
 *        CONTRIBUTIONS TO THE CODE HAVE ALSO BEEN GIVEN BY                    *
 *                                                                             *
 *  M. FERRABONE(1,11), M. DE LA PIERRE(1,11), M. FERRERO(1,11),               *
 *  J. BAIMA(1,11), E. ALBANESE(1,11), M.F. PEINTINGER(12), R. BAST(13),       *
 *  B. KIRTMAN(15), V. LACIVITA(1,11), R. DEMICHELIS(1,16)                     *
 *  G. BRANDEBURG(17), S. SALUSTRO(1,11), G. SANSONE(1,11)                     *
 *  M.T. RUGGIERO(18)                                                          *
 *                                                                             *
 * (1) THEORETICAL CHEMISTRY GROUP - UNIVERSITA' DI TORINO - TORINO (ITALY)    *

 * (2) COMPUTATIONAL SCIENCE & ENGINEERING DEPARTMENT - STFC DARESBURY (UK)    *
 * (3) UNIVERSIDAD AUTONOMA DEL ESTADO DE MORELOS - CUERNAVACA (MEXICO)        *
 * (4) UNIVERSITE' DE LORRAINE - NANCY (FRANCE)                                *
 * (5) UNIVERSITAET STUTTGART- STUTTGART (GERMANY)                             *
 * (6) IMPERIAL COLLEGE - LONDON (UK)                                          *
 * (7) OXFORD E-RESEARCH CENTRE - OXFORD (UK)                                  *
 * (8) UPMC - SORBONNE UNIVERSITES - PARIS (FRANCE)                            *
 * (9) UNIVERSIDAD DE BARCELONA - BARCELONA (SPAIN)                            *
 *(10) UNIVERSITA' DI NAPOLI "FEDERICO II" - NAPOLI (ITALY)                    *
 *(11) NIS - NANOSTRUCTURED INTERFACES AND SURFACES - TORINO (ITALY)           *
 *(12) MPI FUER CHEMISCHE ENERGIEKONVERSION - MUELHEIM AN DER RUHR (GERMANY)   *
 *(13) UNIVERSITY OF TROMSO - TROMSO (NORWAY)                                  *
 *(14) UNIVERSITE' DE PAU ET DES PAYS DE L'ADOUR - PAU (FRANCE)                *
 *(15) UNIVERSITY OF CALIFORNIA SANTA BARBARA - SANTA BARBARA (USA)            *
 *(16) CURTIN UNIVERSITY - PERTH (AUSTRALIA)                                   *
 *(17) UNIVERSITY COLLEGE LONDON - LONDON (UK)                                 *
 *(18) CAMBRIDGE UNIVERSITY - CAMBRIDGE (UK)                                   *
 *                                                                             *
 *******************************************************************************
 EEEEEEEEEE STARTING  DATE 06 06 2018 TIME 11:10:32.4
 Generated by CrystalWriter                                                      

 CRYSTAL CALCULATION
 (INPUT ACCORDING TO THE INTERNATIONAL TABLES FOR X-RAY CRYSTALLOGRAPHY)
 CRYSTAL FAMILY                       :  TETRAGONAL  
 CRYSTAL CLASS  (GROTH - 1921)        :  DITETRAGONAL DIPYRAMIDAL             

 SPACE GROUP (CENTROSYMMETRIC)        :  P 4/M M M       
 PROCESS            4  OF           16  WORKING
 PROCESS           12  OF           16  WORKING
 PROCESS           14  OF           16  WORKING

 LATTICE PARAMETERS  (ANGSTROMS AND DEGREES) - CONVENTIONAL CELL
        A           B           C        ALPHA        BETA       GAMMA
     3.92785     3.92785     3.43380    90.00000    90.00000    90.00000
 PROCESS            3  OF           16  WORKING
 PROCESS            5  OF           16  WORKING


 NUMBER OF IRREDUCIBLE ATOMS IN THE CONVENTIONAL CELL:    4

 INPUT COORDINATES

 ATOM AT. N.              COORDINATES
   1 229     5.000000000000E-01  5.000000000000E-01  0.000000000000E+00
   2 208     0.000000000000E+00  5.000000000000E-01  0.000000000000E+00
   3 208     5.000000000000E-01  0.000000000000E+00  0.000000000000E+00
   4 238     0.000000000000E+00  0.000000000000E+00  5.000000000000E-01

 *******************************************************************************

 << INFORMATION >>: FROM NOW ON, ALL COORDINATES REFER TO THE PRIMITIVE CELL

 *******************************************************************************

 LATTICE PARAMETERS  (ANGSTROMS AND DEGREES) - PRIMITIVE CELL
       A          B          C        ALPHA      BETA     GAMMA        VOLUME
    3.92785    3.92785    3.43380    90.00000  90.00000  90.00000     52.976686

 INPUT LIST - ATOM N.   3 NOT IRREDUCIBLE

 COORDINATES OF THE EQUIVALENT ATOMS (FRACTIONAL UNITS)

 N. ATOM EQUIV AT. N.          X                  Y                  Z

   1   1   1  229 CU   -5.00000000000E-01 -5.00000000000E-01  0.00000000000E+00

   2   2   1  208 O     0.00000000000E+00 -5.00000000000E-01  0.00000000000E+00
   3   2   2  208 O     5.00000000000E-01  0.00000000000E+00  0.00000000000E+00


 NUMBER OF SYMMETRY OPERATORS         :   16
 *******************************************************************************
 * GEOMETRY EDITING - INPUT COORDINATES ARE GIVEN IN ANGSTROM         
 *******************************************************************************

 GEOMETRY NOW FULLY CONSISTENT WITH THE GROUP

 NO SYMMOPS WITH FINITE TRANSLATIONAL COMPONENT

 *******************************************************************************
 * SUPERCELL OPTION
 *******************************************************************************

 INFORMATION **** GEXPAD **** SUPERCELL VOLUME NEGATIVE ? - SIGN OF EXPANSION MATRIX REVERSED

        EXPANSION MATRIX OF PRIMITIVE CELL
 E1    -2.000    -2.000     0.000
 E2     2.000    -2.000     0.000
 E3     0.000     0.000     1.000

 NUMBER OF ATOMS PER SUPERCELL    32

        DIRECT LATTICE VECTORS COMPONENTS (ANGSTROM)
 B1    -7.856    -7.856     0.000
 B2     7.856    -7.856     0.000
 B3     0.000     0.000     3.434

 LATTICE PARAMETERS  (ANGSTROM AND DEGREES)
       A          B          C         ALPHA     BETA     GAMMA        VOLUME
   11.10964   11.10964    3.43380    90.00000  90.00000  90.00000    423.813486


 **** ATOMS BELONGING TO THE SUPERCELL
 LABEL AT.NO.      COORDINATES (ANGSTROM AND FRACTIONAL)
     1   229     5.8918    -1.9639     0.0000    -0.2500     0.5000     0.0000
     2   229     5.8918     1.9639     0.0000    -0.5000     0.2500     0.0000
     3   229    -1.9639    -1.9639     0.0000     0.2500     0.0000     0.0000
     4   229    -1.9639     1.9639     0.0000     0.0000    -0.2500     0.0000
     5   229     1.9639     5.8918     0.0000    -0.5000    -0.2500     0.0000
     6   229     1.9639    -5.8918     0.0000     0.2500     0.5000     0.0000
     7   229     1.9639    -1.9639     0.0000     0.0000     0.2500     0.0000
     8   229     1.9639     1.9639     0.0000    -0.2500     0.0000     0.0000
     9   208    -0.0000     5.8918     0.0000    -0.3750    -0.3750     0.0000
    10   208    -0.0000    -5.8918     0.0000     0.3750     0.3750     0.0000
    11   208     0.0000    -1.9639     0.0000     0.1250     0.1250     0.0000
    12   208     0.0000     1.9639     0.0000    -0.1250    -0.1250     0.0000
    13   208    -3.9279    -1.9639     0.0000     0.3750    -0.1250     0.0000
    14   208    -3.9279     1.9639     0.0000     0.1250    -0.3750     0.0000
    15   208     3.9278    -1.9639     0.0000    -0.1250     0.3750     0.0000
    16   208     3.9278     1.9639     0.0000    -0.3750     0.1250     0.0000
    17   208     5.8918     0.0000     0.0000    -0.3750     0.3750     0.0000
    18   208    -1.9639    -3.9278     0.0000     0.3750     0.1250     0.0000
    19   208    -1.9639     0.0000     0.0000     0.1250    -0.1250     0.0000
    20   208    -1.9639     3.9278     0.0000    -0.1250    -0.3750     0.0000
    21   208    -5.8918     0.0000     0.0000     0.3750    -0.3750     0.0000
    22   208     1.9639    -3.9278     0.0000     0.1250     0.3750     0.0000
    23   208     1.9639     0.0000     0.0000    -0.1250     0.1250     0.0000
    24   208     1.9639     3.9278     0.0000    -0.3750    -0.1250     0.0000
    25   238     7.8557     0.0000     1.7169    -0.5000     0.5000     0.5000
    26   238     0.0000    -3.9278     1.7169     0.2500     0.2500     0.5000
    27   238     0.0000     0.0000     1.7169     0.0000     0.0000     0.5000
    28   238     0.0000     3.9278     1.7169    -0.2500    -0.2500     0.5000
    29   238    -3.9279     0.0000     1.7169     0.2500    -0.2500     0.5000
    30   238     3.9278    -3.9278     1.7169     0.0000     0.5000     0.5000
    31   238     3.9278     0.0000     1.7169    -0.2500     0.2500     0.5000
    32   238     3.9278     3.9278     1.7169    -0.5000     0.0000     0.5000

 **************************** SUPERCELL GENERATED ****************************
 *********************************************************************
                        ATOMIC SITE SYMMETRIES
 *********************************************************************


 ATOM   1 ATOMIC NUMBER 229 - NUMBER OF SYMMOPS WHICH DO NOT MOVE THE ATOM   4
 SEQUENCE NUMBERS OF THE SYMMOPS
    1    6   10   13
 NUMBER OF ATOMS EQUIVALENT BY SYMMETRY    3
 SEQUENCE NUMBERS OF THESE ATOMS
    6    2    5
 SEQUENCE NUMBERS OF THE CORRESPONDING SYMMOPS
    2    3    4


 ATOM   2 ATOMIC NUMBER 229 - NUMBER OF SYMMOPS WHICH DO NOT MOVE THE ATOM   4
 SEQUENCE NUMBERS OF THE SYMMOPS
    1    5   10   14
 NUMBER OF ATOMS EQUIVALENT BY SYMMETRY    3
 SEQUENCE NUMBERS OF THESE ATOMS
    5    1    6
 SEQUENCE NUMBERS OF THE CORRESPONDING SYMMOPS
    2    3    4


 ATOM   3 ATOMIC NUMBER 229 - NUMBER OF SYMMOPS WHICH DO NOT MOVE THE ATOM   4
 SEQUENCE NUMBERS OF THE SYMMOPS
    1    6   10   13
 NUMBER OF ATOMS EQUIVALENT BY SYMMETRY    3
 SEQUENCE NUMBERS OF THESE ATOMS
    8    4    7
 SEQUENCE NUMBERS OF THE CORRESPONDING SYMMOPS
    2    3    4


 ATOM   4 ATOMIC NUMBER 229 - NUMBER OF SYMMOPS WHICH DO NOT MOVE THE ATOM   4
 SEQUENCE NUMBERS OF THE SYMMOPS
    1    5   10   14
 NUMBER OF ATOMS EQUIVALENT BY SYMMETRY    3
 SEQUENCE NUMBERS OF THESE ATOMS
    7    3    8
 SEQUENCE NUMBERS OF THE CORRESPONDING SYMMOPS
    2    3    4


 ATOM   5 ATOMIC NUMBER 229 - NUMBER OF SYMMOPS WHICH DO NOT MOVE THE ATOM   4
 SEQUENCE NUMBERS OF THE SYMMOPS
    1    5   10   14
 NUMBER OF ATOMS EQUIVALENT BY SYMMETRY    3
 SEQUENCE NUMBERS OF THESE ATOMS
    2    6    1
 SEQUENCE NUMBERS OF THE CORRESPONDING SYMMOPS
    2    3    4


 ATOM   6 ATOMIC NUMBER 229 - NUMBER OF SYMMOPS WHICH DO NOT MOVE THE ATOM   4
 SEQUENCE NUMBERS OF THE SYMMOPS
    1    6   10   13
 NUMBER OF ATOMS EQUIVALENT BY SYMMETRY    3
 SEQUENCE NUMBERS OF THESE ATOMS
    1    5    2
 SEQUENCE NUMBERS OF THE CORRESPONDING SYMMOPS
    2    3    4


 ATOM   7 ATOMIC NUMBER 229 - NUMBER OF SYMMOPS WHICH DO NOT MOVE THE ATOM   4
 SEQUENCE NUMBERS OF THE SYMMOPS
    1    5   10   14
 NUMBER OF ATOMS EQUIVALENT BY SYMMETRY    3
 SEQUENCE NUMBERS OF THESE ATOMS
    4    8    3
 SEQUENCE NUMBERS OF THE CORRESPONDING SYMMOPS
    2    3    4


 ATOM   8 ATOMIC NUMBER 229 - NUMBER OF SYMMOPS WHICH DO NOT MOVE THE ATOM   4
 SEQUENCE NUMBERS OF THE SYMMOPS
    1    6   10   13
 NUMBER OF ATOMS EQUIVALENT BY SYMMETRY    3
 SEQUENCE NUMBERS OF THESE ATOMS
    3    7    4
 SEQUENCE NUMBERS OF THE CORRESPONDING SYMMOPS
    2    3    4


 ATOM   9 ATOMIC NUMBER 208 - NUMBER OF SYMMOPS WHICH DO NOT MOVE THE ATOM   4
 SEQUENCE NUMBERS OF THE SYMMOPS
    1    4   10   11
 NUMBER OF ATOMS EQUIVALENT BY SYMMETRY    3
 SEQUENCE NUMBERS OF THESE ATOMS
   10   21   17
 SEQUENCE NUMBERS OF THE CORRESPONDING SYMMOPS
    2    5    6


 ATOM  10 ATOMIC NUMBER 208 - NUMBER OF SYMMOPS WHICH DO NOT MOVE THE ATOM   4
 SEQUENCE NUMBERS OF THE SYMMOPS
    1    4   10   11
 NUMBER OF ATOMS EQUIVALENT BY SYMMETRY    3
 SEQUENCE NUMBERS OF THESE ATOMS
    9   17   21
 SEQUENCE NUMBERS OF THE CORRESPONDING SYMMOPS
    2    5    6


 ATOM  11 ATOMIC NUMBER 208 - NUMBER OF SYMMOPS WHICH DO NOT MOVE THE ATOM   4
 SEQUENCE NUMBERS OF THE SYMMOPS
    1    4   10   11
 NUMBER OF ATOMS EQUIVALENT BY SYMMETRY    3
 SEQUENCE NUMBERS OF THESE ATOMS
   12   23   19
 SEQUENCE NUMBERS OF THE CORRESPONDING SYMMOPS
    2    5    6


 ATOM  12 ATOMIC NUMBER 208 - NUMBER OF SYMMOPS WHICH DO NOT MOVE THE ATOM   4
 SEQUENCE NUMBERS OF THE SYMMOPS
    1    4   10   11
 NUMBER OF ATOMS EQUIVALENT BY SYMMETRY    3
 SEQUENCE NUMBERS OF THESE ATOMS
   11   19   23
 SEQUENCE NUMBERS OF THE CORRESPONDING SYMMOPS
    2    5    6


 ATOM  13 ATOMIC NUMBER 208 - NUMBER OF SYMMOPS WHICH DO NOT MOVE THE ATOM   2
 SEQUENCE NUMBERS OF THE SYMMOPS
    1   10
 NUMBER OF ATOMS EQUIVALENT BY SYMMETRY    7
 SEQUENCE NUMBERS OF THESE ATOMS
   16   14   15   24   18   20   22
 SEQUENCE NUMBERS OF THE CORRESPONDING SYMMOPS
    2    3    4    5    6    7    8


 ATOM  14 ATOMIC NUMBER 208 - NUMBER OF SYMMOPS WHICH DO NOT MOVE THE ATOM   2
 SEQUENCE NUMBERS OF THE SYMMOPS
    1   10
 NUMBER OF ATOMS EQUIVALENT BY SYMMETRY    7
 SEQUENCE NUMBERS OF THESE ATOMS
   15   13   16   20   22   24   18
 SEQUENCE NUMBERS OF THE CORRESPONDING SYMMOPS
    2    3    4    5    6    7    8


 ATOM  15 ATOMIC NUMBER 208 - NUMBER OF SYMMOPS WHICH DO NOT MOVE THE ATOM   2
 SEQUENCE NUMBERS OF THE SYMMOPS
    1   10
 NUMBER OF ATOMS EQUIVALENT BY SYMMETRY    7
 SEQUENCE NUMBERS OF THESE ATOMS
   14   16   13   22   20   18   24
 SEQUENCE NUMBERS OF THE CORRESPONDING SYMMOPS
    2    3    4    5    6    7    8


 ATOM  16 ATOMIC NUMBER 208 - NUMBER OF SYMMOPS WHICH DO NOT MOVE THE ATOM   2
 SEQUENCE NUMBERS OF THE SYMMOPS
    1   10
 NUMBER OF ATOMS EQUIVALENT BY SYMMETRY    7
 SEQUENCE NUMBERS OF THESE ATOMS
   13   15   14   18   24   22   20
 SEQUENCE NUMBERS OF THE CORRESPONDING SYMMOPS
    2    3    4    5    6    7    8


 ATOM  17 ATOMIC NUMBER 208 - NUMBER OF SYMMOPS WHICH DO NOT MOVE THE ATOM   4
 SEQUENCE NUMBERS OF THE SYMMOPS
    1    3   10   12
 NUMBER OF ATOMS EQUIVALENT BY SYMMETRY    3
 SEQUENCE NUMBERS OF THESE ATOMS
   21   10    9
 SEQUENCE NUMBERS OF THE CORRESPONDING SYMMOPS
    2    5    6


 ATOM  18 ATOMIC NUMBER 208 - NUMBER OF SYMMOPS WHICH DO NOT MOVE THE ATOM   2
 SEQUENCE NUMBERS OF THE SYMMOPS
    1   10
 NUMBER OF ATOMS EQUIVALENT BY SYMMETRY    7
 SEQUENCE NUMBERS OF THESE ATOMS
   24   20   22   16   13   14   15
 SEQUENCE NUMBERS OF THE CORRESPONDING SYMMOPS
    2    3    4    5    6    7    8


 ATOM  19 ATOMIC NUMBER 208 - NUMBER OF SYMMOPS WHICH DO NOT MOVE THE ATOM   4
 SEQUENCE NUMBERS OF THE SYMMOPS
    1    3   10   12
 NUMBER OF ATOMS EQUIVALENT BY SYMMETRY    3
 SEQUENCE NUMBERS OF THESE ATOMS
   23   12   11
 SEQUENCE NUMBERS OF THE CORRESPONDING SYMMOPS
    2    5    6


 ATOM  20 ATOMIC NUMBER 208 - NUMBER OF SYMMOPS WHICH DO NOT MOVE THE ATOM   2
 SEQUENCE NUMBERS OF THE SYMMOPS
    1   10
 NUMBER OF ATOMS EQUIVALENT BY SYMMETRY    7
 SEQUENCE NUMBERS OF THESE ATOMS
   22   18   24   14   15   16   13
 SEQUENCE NUMBERS OF THE CORRESPONDING SYMMOPS
    2    3    4    5    6    7    8


 ATOM  21 ATOMIC NUMBER 208 - NUMBER OF SYMMOPS WHICH DO NOT MOVE THE ATOM   4
 SEQUENCE NUMBERS OF THE SYMMOPS
    1    3   10   12
 NUMBER OF ATOMS EQUIVALENT BY SYMMETRY    3
 SEQUENCE NUMBERS OF THESE ATOMS
   17    9   10
 SEQUENCE NUMBERS OF THE CORRESPONDING SYMMOPS
    2    5    6


 ATOM  22 ATOMIC NUMBER 208 - NUMBER OF SYMMOPS WHICH DO NOT MOVE THE ATOM   2
 SEQUENCE NUMBERS OF THE SYMMOPS
    1   10
 NUMBER OF ATOMS EQUIVALENT BY SYMMETRY    7
 SEQUENCE NUMBERS OF THESE ATOMS
   20   24   18   15   14   13   16
 SEQUENCE NUMBERS OF THE CORRESPONDING SYMMOPS
    2    3    4    5    6    7    8


 ATOM  23 ATOMIC NUMBER 208 - NUMBER OF SYMMOPS WHICH DO NOT MOVE THE ATOM   4
 SEQUENCE NUMBERS OF THE SYMMOPS
    1    3   10   12
 NUMBER OF ATOMS EQUIVALENT BY SYMMETRY    3
 SEQUENCE NUMBERS OF THESE ATOMS
   19   11   12
 SEQUENCE NUMBERS OF THE CORRESPONDING SYMMOPS
    2    5    6


 ATOM  24 ATOMIC NUMBER 208 - NUMBER OF SYMMOPS WHICH DO NOT MOVE THE ATOM   2
 SEQUENCE NUMBERS OF THE SYMMOPS
    1   10
 NUMBER OF ATOMS EQUIVALENT BY SYMMETRY    7
 SEQUENCE NUMBERS OF THESE ATOMS
   18   22   20   13   16   15   14
 SEQUENCE NUMBERS OF THE CORRESPONDING SYMMOPS
    2    3    4    5    6    7    8


 ATOM  25 ATOMIC NUMBER 238 - NUMBER OF SYMMOPS WHICH DO NOT MOVE THE ATOM  16
 SEQUENCE NUMBERS OF THE SYMMOPS
    1    2    3    4    5    6    7    8    9   10   11   12   13   14   15
   16
 NO EQUIVALENT ATOMS


 ATOM  26 ATOMIC NUMBER 238 - NUMBER OF SYMMOPS WHICH DO NOT MOVE THE ATOM   4
 SEQUENCE NUMBERS OF THE SYMMOPS
    1    4   10   11
 NUMBER OF ATOMS EQUIVALENT BY SYMMETRY    3
 SEQUENCE NUMBERS OF THESE ATOMS
   28   31   29
 SEQUENCE NUMBERS OF THE CORRESPONDING SYMMOPS
    2    5    6


 ATOM  27 ATOMIC NUMBER 238 - NUMBER OF SYMMOPS WHICH DO NOT MOVE THE ATOM  16
 SEQUENCE NUMBERS OF THE SYMMOPS
    1    2    3    4    5    6    7    8    9   10   11   12   13   14   15
   16
 NO EQUIVALENT ATOMS


 ATOM  28 ATOMIC NUMBER 238 - NUMBER OF SYMMOPS WHICH DO NOT MOVE THE ATOM   4
 SEQUENCE NUMBERS OF THE SYMMOPS
    1    4   10   11
 NUMBER OF ATOMS EQUIVALENT BY SYMMETRY    3
 SEQUENCE NUMBERS OF THESE ATOMS
   26   29   31
 SEQUENCE NUMBERS OF THE CORRESPONDING SYMMOPS
    2    5    6


 ATOM  29 ATOMIC NUMBER 238 - NUMBER OF SYMMOPS WHICH DO NOT MOVE THE ATOM   4
 SEQUENCE NUMBERS OF THE SYMMOPS
    1    3   10   12
 NUMBER OF ATOMS EQUIVALENT BY SYMMETRY    3
 SEQUENCE NUMBERS OF THESE ATOMS
   31   28   26
 SEQUENCE NUMBERS OF THE CORRESPONDING SYMMOPS
    2    5    6


 ATOM  30 ATOMIC NUMBER 238 - NUMBER OF SYMMOPS WHICH DO NOT MOVE THE ATOM   8
 SEQUENCE NUMBERS OF THE SYMMOPS
    1    2    5    6    9   10   13   14
 NUMBER OF ATOMS EQUIVALENT BY SYMMETRY    1
 SEQUENCE NUMBERS OF THESE ATOMS
   32
 SEQUENCE NUMBERS OF THE CORRESPONDING SYMMOPS
    3


 ATOM  31 ATOMIC NUMBER 238 - NUMBER OF SYMMOPS WHICH DO NOT MOVE THE ATOM   4
 SEQUENCE NUMBERS OF THE SYMMOPS
    1    3   10   12
 NUMBER OF ATOMS EQUIVALENT BY SYMMETRY    3
 SEQUENCE NUMBERS OF THESE ATOMS
   29   26   28
 SEQUENCE NUMBERS OF THE CORRESPONDING SYMMOPS
    2    5    6


 ATOM  32 ATOMIC NUMBER 238 - NUMBER OF SYMMOPS WHICH DO NOT MOVE THE ATOM   8
 SEQUENCE NUMBERS OF THE SYMMOPS
    1    2    5    6    9   10   13   14
 NUMBER OF ATOMS EQUIVALENT BY SYMMETRY    1
 SEQUENCE NUMBERS OF THESE ATOMS
   30
 SEQUENCE NUMBERS OF THE CORRESPONDING SYMMOPS
    3

 *****   16 SYMMOPS - TRANSLATORS IN ANGSTROM
 ***** MATRICES AND TRANSLATORS IN THE CARTESIAN REFERENCE FRAME

 ORDER   : ORDER OF THE OPERATOR

 TRANSLA : REAL TRANSLATION (WITHOUT ORIGIN SHIFT) IN CARTESIAN COORDINATES

 uvw/hkl : ORIENTATION OF THE OPERATOR IN CARTESIAN COORDINATES

 LOCATED : ORIGIN OF THE OPERATOR IN CARTESIAN COORDINATES

   NO.   1 INVERSE   1    ORDER   1        NO.   2 INVERSE   2    ORDER   2
    1.000   0.000   0.000     0.000        -1.000   0.000   0.000     0.000
    0.000   1.000   0.000     0.000         0.000  -1.000   0.000     0.000
    0.000   0.000   1.000     0.000         0.000   0.000   1.000     0.000
             OPERATION E(   1)                       OPERATION C(   2)
 DETERMINANT 1.; ROTATION(DEG)   0.      DETERMINANT 1.; ROTATION(DEG) 180.
 TRANSLA (  0.000    0.000    0.000)     TRANSLA (  0.000    0.000    0.000)
 uvw/hkl (  0.000    0.000    0.000)     uvw/hkl (  0.000    0.000    4.000)
 LOCATED (  0.000    0.000    0.000)     LOCATED (  0.000    0.000    0.000)

   NO.   3 INVERSE   3    ORDER   2        NO.   4 INVERSE   4    ORDER   2
    1.000   0.000   0.000     0.000        -1.000   0.000   0.000     0.000
    0.000  -1.000   0.000     0.000         0.000   1.000   0.000     0.000
    0.000   0.000  -1.000     0.000         0.000   0.000  -1.000     0.000
             OPERATION C(   2)                       OPERATION C(   2)
 DETERMINANT 1.; ROTATION(DEG) 180.      DETERMINANT 1.; ROTATION(DEG) 180.
 TRANSLA (  0.000    0.000    0.000)     TRANSLA (  0.000    0.000    0.000)
 uvw/hkl (  4.000    0.000    0.000)     uvw/hkl (  0.000   -4.000    0.000)
 LOCATED (  0.000    0.000    0.000)     LOCATED (  0.000    0.000    0.000)

   NO.   5 INVERSE   5    ORDER   2        NO.   6 INVERSE   6    ORDER   2
    0.000  -1.000   0.000     0.000         0.000   1.000   0.000     0.000
   -1.000   0.000   0.000     0.000         1.000   0.000   0.000     0.000
    0.000   0.000  -1.000     0.000         0.000   0.000  -1.000     0.000
             OPERATION C(   2)                       OPERATION C(   2)
 DETERMINANT 1.; ROTATION(DEG) 180.      DETERMINANT 1.; ROTATION(DEG) 180.
 TRANSLA (  0.000    0.000    0.000)     TRANSLA (  0.000    0.000    0.000)
 uvw/hkl (  2.000   -2.000    0.000)     uvw/hkl ( -2.000   -2.000    0.000)
 LOCATED (  0.000    0.000    0.000)     LOCATED (  0.000    0.000    0.000)

   NO.   7 INVERSE   8    ORDER   4        NO.   8 INVERSE   7    ORDER   4
    0.000   1.000   0.000     0.000         0.000  -1.000   0.000     0.000
   -1.000   0.000   0.000     0.000         1.000   0.000   0.000     0.000
    0.000   0.000   1.000     0.000         0.000   0.000   1.000     0.000
             OPERATION C(   4)                       OPERATION C(   4)
 DETERMINANT 1.; ROTATION(DEG)  90.      DETERMINANT 1.; ROTATION(DEG)  90.
 TRANSLA (  0.000    0.000    0.000)     TRANSLA (  0.000    0.000    0.000)
 uvw/hkl (  0.000    0.000    2.000)     uvw/hkl (  0.000    0.000    2.000)
 LOCATED (  0.000    0.000    0.000)     LOCATED (  0.000    0.000    0.000)

   NO.   9 INVERSE   9    ORDER   2        NO.  10 INVERSE  10    ORDER   2
   -1.000   0.000   0.000     0.000         1.000   0.000   0.000     0.000
    0.000  -1.000   0.000     0.000         0.000   1.000   0.000     0.000
    0.000   0.000  -1.000     0.000         0.000   0.000  -1.000     0.000
             OPERATION I(   2)                       OPERATION M(   2)
 DETERMINANT-1.; ROTATION(DEG) 180.      DETERMINANT-1.; ROTATION(DEG)   0.
 TRANSLA (  0.000    0.000    0.000)     TRANSLA (  0.000    0.000    0.000)
 uvw/hkl (  0.000    0.000    0.000)     uvw/hkl (  0.000    0.000   -2.000)
 LOCATED (  0.000    0.000    0.000)     LOCATED (  0.000    0.000    0.000)

   NO.  11 INVERSE  11    ORDER   2        NO.  12 INVERSE  12    ORDER   2
   -1.000   0.000   0.000     0.000         1.000   0.000   0.000     0.000
    0.000   1.000   0.000     0.000         0.000  -1.000   0.000     0.000
    0.000   0.000   1.000     0.000         0.000   0.000   1.000     0.000
             OPERATION M(   2)                       OPERATION M(   2)
 DETERMINANT-1.; ROTATION(DEG)   0.      DETERMINANT-1.; ROTATION(DEG)   0.
 TRANSLA (  0.000    0.000    0.000)     TRANSLA (  0.000    0.000    0.000)
 uvw/hkl (  2.000    0.000    0.000)     uvw/hkl (  0.000   -2.000    0.000)
 LOCATED (  0.000    0.000    0.000)     LOCATED (  0.000    0.000    0.000)

   NO.  13 INVERSE  13    ORDER   2        NO.  14 INVERSE  14    ORDER   2
    0.000   1.000   0.000     0.000         0.000  -1.000   0.000     0.000
    1.000   0.000   0.000     0.000        -1.000   0.000   0.000     0.000
    0.000   0.000   1.000     0.000         0.000   0.000   1.000     0.000
             OPERATION M(   2)                       OPERATION M(   2)
 DETERMINANT-1.; ROTATION(DEG)   0.      DETERMINANT-1.; ROTATION(DEG)   0.
 TRANSLA (  0.000    0.000    0.000)     TRANSLA (  0.000    0.000    0.000)
 uvw/hkl (  1.000   -1.000    0.000)     uvw/hkl (  1.000    1.000    0.000)
 LOCATED (  0.000    0.000    0.000)     LOCATED (  0.000    0.000    0.000)

   NO.  15 INVERSE  16    ORDER   4        NO.  16 INVERSE  15    ORDER   4
    0.000  -1.000   0.000     0.000         0.000   1.000   0.000     0.000
    1.000   0.000   0.000     0.000        -1.000   0.000   0.000     0.000
    0.000   0.000  -1.000     0.000         0.000   0.000  -1.000     0.000
             OPERATION S(   4)                       OPERATION S(   4)
 DETERMINANT-1.; ROTATION(DEG)  90.      DETERMINANT-1.; ROTATION(DEG)  90.
 TRANSLA (  0.000    0.000    0.000)     TRANSLA (  0.000    0.000    0.000)
 uvw/hkl (  0.000    0.000    2.000)     uvw/hkl (  0.000    0.000    2.000)
 LOCATED (  0.000    0.000    0.000)     LOCATED (  0.000    0.000    0.000)
 SSSSSSSSSSSSSSSSSSSSSSSSSSSSSSSSSSSSSSSSSSSSSSSSSSSSSSSSSSSSSSSSSSSSSSSSSSSSSS
 REDUCTION OF SYMMETRY - ATOMIC LABELS SET TO (ATOM, AT. N., LABEL)
   1(229) 1;   2(229) 2;   3(229) 3;   4(229) 4;   5(229) 5;   6(229) 6;
   7(229) 7;   8(229) 8;   9(208) 0;  10(208) 0;  11(208) 0;  12(208) 0;
  13(208) 0;  14(208) 0;  15(208) 0;  16(208) 0;  17(208) 0;  18(208) 0;
  19(208) 0;  20(208) 0;  21(208) 0;  22(208) 0;  23(208) 0;  24(208) 0;
  25(238) 0;  26(238) 0;  27(238) 0;  28(238) 0;  29(238) 0;  30(238) 0;
  31(238) 0;  32(238) 0;
 THE NUMBER OF SYMMETRY OPERATORS HAS BEEN REDUCED FROM 16 TO  2
 *******************************************************************************
 PROCESS            1  OF           16  WORKING
 PROCESS           15  OF           16  WORKING
 PROCESS            6  OF           16  WORKING

 GCALCO - MAX INDICES DIRECT LATTICE VECTOR     9     9    32
 PROCESS           13  OF           16  WORKING
 NO.OF VECTORS CREATED 6999 STARS  569 RMAX   168.68580 BOHR

 GEOMETRY FOR WAVE FUNCTION - DIMENSIONALITY OF THE SYSTEM    3
 (NON PERIODIC DIRECTION: LATTICE PARAMETER FORMALLY SET TO 500)
 *******************************************************************************
 LATTICE PARAMETERS (ANGSTROMS AND DEGREES) - BOHR = 0.5291772083 ANGSTROM
 PRIMITIVE CELL - CENTRING CODE 1/1 VOLUME=   423.813486 - DENSITY  5.731 g/cm^3
         A              B              C           ALPHA      BETA       GAMMA 
    11.10963748    11.10963748     3.43380000    90.000000  90.000000  90.000000
 *******************************************************************************
 ATOMS IN THE ASYMMETRIC UNIT   32 - ATOMS IN THE UNIT CELL:   32
     ATOM                 X/A                 Y/B                 Z/C    
 *******************************************************************************
      1 T 229 CU   -2.500000000000E-01 -5.000000000000E-01  0.000000000000E+00
      2 T 229 CU   -5.000000000000E-01  2.500000000000E-01  0.000000000000E+00
      3 T 229 CU    2.500000000000E-01  0.000000000000E+00  0.000000000000E+00
      4 T 229 CU    0.000000000000E+00 -2.500000000000E-01  0.000000000000E+00
      5 T 229 CU   -5.000000000000E-01 -2.500000000000E-01  0.000000000000E+00
      6 T 229 CU    2.500000000000E-01 -5.000000000000E-01  0.000000000000E+00
      7 T 229 CU    0.000000000000E+00  2.500000000000E-01  0.000000000000E+00
      8 T 229 CU   -2.500000000000E-01  0.000000000000E+00  0.000000000000E+00
      9 T 208 O    -3.750000000000E-01 -3.750000000000E-01  0.000000000000E+00
     10 T 208 O     3.750000000000E-01  3.750000000000E-01  0.000000000000E+00
     11 T 208 O     1.250000000000E-01  1.250000000000E-01  0.000000000000E+00
     12 T 208 O    -1.250000000000E-01 -1.250000000000E-01  0.000000000000E+00
     13 T 208 O     3.750000000000E-01 -1.250000000000E-01  0.000000000000E+00
     14 T 208 O     1.250000000000E-01 -3.750000000000E-01  0.000000000000E+00
     15 T 208 O    -1.250000000000E-01  3.750000000000E-01  0.000000000000E+00
     16 T 208 O    -3.750000000000E-01  1.250000000000E-01  0.000000000000E+00
     17 T 208 O    -3.750000000000E-01  3.750000000000E-01  0.000000000000E+00
     18 T 208 O     3.750000000000E-01  1.250000000000E-01  0.000000000000E+00
     19 T 208 O     1.250000000000E-01 -1.250000000000E-01  0.000000000000E+00
     20 T 208 O    -1.250000000000E-01 -3.750000000000E-01  0.000000000000E+00
     21 T 208 O     3.750000000000E-01 -3.750000000000E-01  0.000000000000E+00
     22 T 208 O     1.250000000000E-01  3.750000000000E-01  0.000000000000E+00
     23 T 208 O    -1.250000000000E-01  1.250000000000E-01  0.000000000000E+00
     24 T 208 O    -3.750000000000E-01 -1.250000000000E-01  0.000000000000E+00
     25 T 238 SR   -5.000000000000E-01 -5.000000000000E-01  5.000000000000E-01
     26 T 238 SR    2.500000000000E-01  2.500000000000E-01  5.000000000000E-01
     27 T 238 SR    0.000000000000E+00  0.000000000000E+00  5.000000000000E-01
     28 T 238 SR   -2.500000000000E-01 -2.500000000000E-01  5.000000000000E-01
     29 T 238 SR    2.500000000000E-01 -2.500000000000E-01  5.000000000000E-01
     30 T 238 SR    0.000000000000E+00 -5.000000000000E-01  5.000000000000E-01
     31 T 238 SR   -2.500000000000E-01  2.500000000000E-01  5.000000000000E-01
     32 T 238 SR   -5.000000000000E-01  0.000000000000E+00  5.000000000000E-01

 T = ATOM BELONGING TO THE ASYMMETRIC UNIT

 ****    2 SYMMOPS - TRANSLATORS IN FRACTIONAL UNITS
 **** MATRICES AND TRANSLATORS IN THE CRYSTALLOGRAPHIC REFERENCE FRAME
   V INV                    ROTATION MATRICES                   TRANSLATORS
   1   1  1.00  0.00  0.00  0.00  1.00  0.00  0.00  0.00  1.00  0.00  0.00  0.00
   2   2  1.00 -0.00  0.00 -0.00  1.00  0.00  0.00  0.00 -1.00  0.00  0.00  0.00

 DIRECT LATTICE VECTORS CARTESIAN COMPONENTS (ANGSTROM)
          X                    Y                    Z
  -0.785570000000E+01  -0.785570000000E+01   0.000000000000E+00
   0.785570000000E+01  -0.785570000000E+01   0.000000000000E+00
   0.000000000000E+00   0.000000000000E+00   0.343380000000E+01


 CARTESIAN COORDINATES - PRIMITIVE CELL
 *******************************************************************************
 *      ATOM          X(ANGSTROM)         Y(ANGSTROM)         Z(ANGSTROM)
 *******************************************************************************
    1   229 CU    5.891775000000E+00 -1.963925000000E+00  0.000000000000E+00
    2   229 CU   -1.963925000000E+00 -5.891775000000E+00  0.000000000000E+00
    3   229 CU   -1.963925000000E+00 -1.963925000000E+00  0.000000000000E+00
    4   229 CU   -1.963925000000E+00  1.963925000000E+00  0.000000000000E+00
    5   229 CU   -5.891775000000E+00 -1.963925000000E+00  0.000000000000E+00
    6   229 CU    1.963925000000E+00 -5.891775000000E+00  0.000000000000E+00
    7   229 CU    1.963925000000E+00 -1.963925000000E+00  0.000000000000E+00
    8   229 CU    1.963925000000E+00  1.963925000000E+00  0.000000000000E+00
    9   208 O    -9.400075532184E-16  5.891775000000E+00  0.000000000000E+00
   10   208 O    -9.400075532184E-16 -5.891775000000E+00  0.000000000000E+00
   11   208 O     0.000000000000E+00 -1.963925000000E+00  0.000000000000E+00
   12   208 O     4.700037766092E-16  1.963925000000E+00  0.000000000000E+00
   13   208 O    -3.927850000000E+00 -1.963925000000E+00  0.000000000000E+00
   14   208 O    -3.927850000000E+00  1.963925000000E+00  0.000000000000E+00
   15   208 O     3.927850000000E+00 -1.963925000000E+00  0.000000000000E+00
   16   208 O     3.927850000000E+00  1.963925000000E+00  0.000000000000E+00
   17   208 O     5.891775000000E+00  9.400075532184E-16  0.000000000000E+00
   18   208 O    -1.963925000000E+00 -3.927850000000E+00  0.000000000000E+00
   19   208 O    -1.963925000000E+00  0.000000000000E+00  0.000000000000E+00
   20   208 O    -1.963925000000E+00  3.927850000000E+00  0.000000000000E+00
   21   208 O    -5.891775000000E+00  1.880015106437E-15  0.000000000000E+00
   22   208 O     1.963925000000E+00 -3.927850000000E+00  0.000000000000E+00
   23   208 O     1.963925000000E+00  4.700037766092E-16  0.000000000000E+00
   24   208 O     1.963925000000E+00  3.927850000000E+00  0.000000000000E+00
   25   238 SR    0.000000000000E+00 -7.855700000000E+00  1.716900000000E+00
   26   238 SR    0.000000000000E+00 -3.927850000000E+00  1.716900000000E+00
   27   238 SR    0.000000000000E+00  0.000000000000E+00  1.716900000000E+00
   28   238 SR    4.700037766092E-16  3.927850000000E+00  1.716900000000E+00
   29   238 SR   -3.927850000000E+00  1.645013218132E-15  1.716900000000E+00
   30   238 SR    3.927850000000E+00 -3.927850000000E+00  1.716900000000E+00
   31   238 SR    3.927850000000E+00  4.700037766092E-16  1.716900000000E+00
   32   238 SR   -3.927850000000E+00 -3.927850000000E+00  1.716900000000E+00

 *******************************************************************************
 *** PSEUDOPOTENTIAL INFORMATION ***
 *******************************************************************************

 ATOMIC NUMBER  29, NUCLEAR CHARGE 19.000, GIVEN IN INPUT       PSEUDOPOTENTIAL
   TYPE       EXPONENT      COEFF.    N      EXPONENT      COEFF.    N
  W0 TMS     6.2514963   19.0000000  -1     6.7272533  118.7784294   1
             6.6102459 -105.8998240   0
  P0 TMS    12.3656871  127.3506942   0
  P1 TMS    11.1607294   71.2298490   0

 ATOMIC NUMBER   8, NUCLEAR CHARGE  6.000, GIVEN IN INPUT       PSEUDOPOTENTIAL
   TYPE       EXPONENT      COEFF.    N      EXPONENT      COEFF.    N
  W0 TMS     9.2979390    6.0000000  -1     8.8649220   55.7876342   1
             8.6292567  -38.8197850   0
  P0 TMS     8.7192445   38.4191413   0

 ATOMIC NUMBER  38, NUCLEAR CHARGE  2.000, GIVEN IN INPUT       PSEUDOPOTENTIAL
   TYPE       EXPONENT      COEFF.    N      EXPONENT      COEFF.    N
  W0 TMS     4.3839388    2.0000000  -1     3.1964983    8.7678775   1
             0.9899150  -14.2552431   0
  P0 TMS     1.2868349  146.8716052   0
  P1 TMS     0.9567448  140.0262284   0
  P2 TMS     1.9483165   24.4454878   0
 INFORMATION **** CHARGED ****  CHARGED CELL - NO TOTAL ENERGY

 NUCLEAR CHARGE  2.640E+02 CHARGE ON SHELLS  2.660E+02
 WARNING **** INPBAS **** UNIT CELL NOT NEUTRAL

 *******************************************************************************
 LOCAL ATOMIC FUNCTIONS BASIS SET
 *******************************************************************************
   ATOM   X(AU)   Y(AU)   Z(AU)  N. TYPE  EXPONENT  S COEF   P COEF   D/F/G COEF
 *******************************************************************************
   1 CU  11.134  -3.711   0.000
                                  1 S  
                                         2.000E-01 2.869E-02 0.000E+00 0.000E+00
                                         4.000E-01-3.644E-02 0.000E+00 0.000E+00
                                         8.000E-01 3.588E-01 0.000E+00 0.000E+00
                                         1.600E+00 4.743E-01 0.000E+00 0.000E+00
                                         3.200E+00 4.984E-01 0.000E+00 0.000E+00
                                         6.400E+00-2.701E-01 0.000E+00 0.000E+00
                                         1.280E+01-1.921E-01 0.000E+00 0.000E+00
                                         2.560E+01 6.296E-02 0.000E+00 0.000E+00
                                         5.120E+01-8.536E-03 0.000E+00 0.000E+00
                                         1.024E+02 8.122E-04 0.000E+00 0.000E+00
                                  2 S  
                                         2.000E-01 2.202E+00 0.000E+00 0.000E+00
                                         4.000E-01-2.282E+00 0.000E+00 0.000E+00
                                         8.000E-01 1.463E+00 0.000E+00 0.000E+00
                                         1.600E+00-1.100E+00 0.000E+00 0.000E+00
                                         3.200E+00 2.968E-01 0.000E+00 0.000E+00
                                         6.400E+00-1.215E-01 0.000E+00 0.000E+00
                                         1.280E+01 1.179E-01 0.000E+00 0.000E+00
                                         2.560E+01-3.414E-02 0.000E+00 0.000E+00
                                         5.120E+01 5.951E-03 0.000E+00 0.000E+00
                                         1.024E+02-7.152E-04 0.000E+00 0.000E+00
                           3-     5 P  
                                         1.859E+01 0.000E+00 3.652E-03 0.000E+00
                                         1.430E+01 0.000E+00-3.708E-02 0.000E+00
                                         5.631E+00 0.000E+00 2.171E-01 0.000E+00
                                         2.683E+00 0.000E+00 4.410E-01 0.000E+00
                                         1.259E+00 0.000E+00 3.587E-01 0.000E+00
                                         5.741E-01 0.000E+00 1.148E-01 0.000E+00
                                         2.092E-01 0.000E+00 7.316E-03 0.000E+00
                           6-    10 D  
                                         2.000E-01 0.000E+00 0.000E+00 2.793E-01
                                         4.000E-01 0.000E+00 0.000E+00-1.172E-01
                                         8.000E-01 0.000E+00 0.000E+00 4.205E-01
                                         1.600E+00 0.000E+00 0.000E+00 1.666E-01
                                         3.200E+00 0.000E+00 0.000E+00 3.152E-01
                                         6.400E+00 0.000E+00 0.000E+00 2.011E-01
                                         1.280E+01 0.000E+00 0.000E+00 1.280E-01
                                         2.560E+01 0.000E+00 0.000E+00 8.945E-03
                                         5.120E+01 0.000E+00 0.000E+00-5.173E-04
                                         1.024E+02 0.000E+00 0.000E+00 2.473E-05
                          11-    17 F  
                                         1.692E+00 0.000E+00 0.000E+00 1.000E+00
                                 18 S  
                                         2.000E-01 1.000E+00 0.000E+00 0.000E+00
                                 19 S  
                                         6.000E-01 1.000E+00 0.000E+00 0.000E+00
                          20-    22 P  
                                         2.000E-01 0.000E+00 1.000E+00 0.000E+00
                          23-    25 P  
                                         6.000E-01 0.000E+00 1.000E+00 0.000E+00
                          26-    30 D  
                                         2.000E-01 0.000E+00 0.000E+00 1.000E+00
                          31-    35 D  
                                         6.000E-01 0.000E+00 0.000E+00 1.000E+00
   2 CU  -3.711 -11.134   0.000
   3 CU  -3.711  -3.711   0.000
   4 CU  -3.711   3.711   0.000
   5 CU -11.134  -3.711   0.000
   6 CU   3.711 -11.134   0.000
   7 CU   3.711  -3.711   0.000
   8 CU   3.711   3.711   0.000
   9 O   -0.000  11.134   0.000
                                281 S  
                                         2.000E-01 2.154E-01 0.000E+00 0.000E+00
                                         4.000E-01 3.519E-01 0.000E+00 0.000E+00
                                         8.000E-01 3.951E-01 0.000E+00 0.000E+00
                                         1.600E+00 1.795E-01 0.000E+00 0.000E+00
                                         3.200E+00-4.321E-02 0.000E+00 0.000E+00
                                         6.400E+00-1.052E-01 0.000E+00 0.000E+00
                                         1.280E+01 1.978E-02 0.000E+00 0.000E+00
                                         2.560E+01-1.974E-03 0.000E+00 0.000E+00
                                         5.120E+01 3.878E-04 0.000E+00 0.000E+00
                                         1.024E+02-5.576E-05 0.000E+00 0.000E+00
                         282-   284 P  
                                         2.000E-01 0.000E+00 2.831E-01 0.000E+00
                                         4.000E-01 0.000E+00 2.058E-01 0.000E+00
                                         8.000E-01 0.000E+00 3.032E-01 0.000E+00
                                         1.600E+00 0.000E+00 2.188E-01 0.000E+00
                                         3.200E+00 0.000E+00 1.362E-01 0.000E+00
                                         6.400E+00 0.000E+00 7.101E-02 0.000E+00
                                         1.280E+01 0.000E+00 2.742E-02 0.000E+00
                                         2.560E+01 0.000E+00 1.611E-03 0.000E+00
                                         5.120E+01 0.000E+00 1.514E-05 0.000E+00
                                         1.024E+02 0.000E+00-2.817E-06 0.000E+00
                         285-   289 D  
                                         6.693E-01 0.000E+00 0.000E+00 1.000E+00
                         290-   296 F  
                                         1.423E+00 0.000E+00 0.000E+00 1.000E+00
                                297 S  
                                         2.000E-01 1.000E+00 0.000E+00 0.000E+00
                                298 S  
                                         6.000E-01 1.000E+00 0.000E+00 0.000E+00
                         299-   301 P  
                                         2.000E-01 0.000E+00 1.000E+00 0.000E+00
                         302-   304 P  
                                         6.000E-01 0.000E+00 1.000E+00 0.000E+00
  10 O   -0.000 -11.134   0.000
  11 O    0.000  -3.711   0.000
  12 O    0.000   3.711   0.000
  13 O   -7.423  -3.711   0.000
  14 O   -7.423   3.711   0.000
  15 O    7.423  -3.711   0.000
  16 O    7.423   3.711   0.000
  17 O   11.134   0.000   0.000
  18 O   -3.711  -7.423   0.000
  19 O   -3.711   0.000   0.000
  20 O   -3.711   7.423   0.000
  21 O  -11.134   0.000   0.000
  22 O    3.711  -7.423   0.000
  23 O    3.711   0.000   0.000
  24 O    3.711   7.423   0.000
  25 SR   0.000 -14.845   3.244
                                665 S  
                                         2.000E-01 6.885E-01 0.000E+00 0.000E+00
                                         4.000E-01-1.121E+00 0.000E+00 0.000E+00
                                         8.000E-01 6.678E-01 0.000E+00 0.000E+00
                                         1.600E+00-2.643E-01 0.000E+00 0.000E+00
                                         3.200E+00 1.079E-01 0.000E+00 0.000E+00
                                         6.400E+00-4.671E-02 0.000E+00 0.000E+00
                                         1.280E+01 1.904E-02 0.000E+00 0.000E+00
                                         2.560E+01-6.568E-03 0.000E+00 0.000E+00
                                         5.120E+01 1.555E-03 0.000E+00 0.000E+00
                                         1.024E+02-1.928E-04 0.000E+00 0.000E+00
                         666-   668 P  
                                         2.000E-01 0.000E+00 3.164E-01 0.000E+00
                                         4.000E-01 0.000E+00-4.659E-01 0.000E+00
                                         8.000E-01 0.000E+00 2.270E-01 0.000E+00
                                         1.600E+00 0.000E+00-6.609E-02 0.000E+00
                                         3.200E+00 0.000E+00 1.630E-02 0.000E+00
                                         6.400E+00 0.000E+00-3.651E-03 0.000E+00
                                         1.280E+01 0.000E+00 7.054E-04 0.000E+00
                                         2.560E+01 0.000E+00-1.785E-04 0.000E+00
                                         5.120E+01 0.000E+00 3.065E-05 0.000E+00
                                         1.024E+02 0.000E+00-2.716E-06 0.000E+00
                         669-   673 D  
                                         1.198E-01 0.000E+00 0.000E+00 1.000E+00
                         674-   680 F  
                                         1.645E-01 0.000E+00 0.000E+00 1.000E+00
                                681 S  
                                         2.000E-01 1.000E+00 0.000E+00 0.000E+00
                                682 S  
                                         6.000E-01 1.000E+00 0.000E+00 0.000E+00
                         683-   685 P  
                                         2.000E-01 0.000E+00 1.000E+00 0.000E+00
                         686-   688 P  
                                         6.000E-01 0.000E+00 1.000E+00 0.000E+00
  26 SR   0.000  -7.423   3.244
  27 SR   0.000   0.000   3.244
  28 SR   0.000   7.423   3.244
  29 SR  -7.423   0.000   3.244
  30 SR   7.423  -7.423   3.244
  31 SR   7.423   0.000   3.244
  32 SR  -7.423  -7.423   3.244
 INFORMATION **** SET_MPP **** PCRYSTAL CALCULATION
 INFORMATION **** READM2 **** NEW DEFAULT: FOCK/KS MATRIX MIXING SET TO 30 %
 INFORMATION **** READM2 **** NEW DEFAULT: FULL DIRECT SCF MODE
 INFORMATION **** READM2 **** NEW DEFAULT: COULOMB BIPOLAR BUFFER SET TO 32 Mb
 INFORMATION **** READM2 **** NEW DEFAULT: EXCHANGE BIPOLAR BUFFER SET TO 32 Mb

 *******************************************************************************
 NEW DEFAULT: DFT INTEGRATION GRID INCREASED TO XLGRID
 NEW DEFAULT: DIIS ACCELERATOR ACTIVE
 USE KEYWORD NODIIS TO TURN IT OFF
 *******************************************************************************

 INFORMATION **** READM2 **** FULL DIRECT SCF (MONO AND BIEL INT) SELECTED
 INFORMATION **** BIPOSIZE **** COULOMB BIPOLAR BUFFER SET TO   100000000
 INFORMATION **** EXCHSIZE **** EXCHANGE BIPOLAR BUFFER SIZE SET TO    10000000
 INFORMATION **** TOLDEE **** SCF TOL ON TOTAL ENERGY SET TO           9
 INFORMATION **** TOLINTEG **** COULOMB AND EXCHANGE SERIES TOLERANCES MODIFIED
 INFORMATION **** MAXCYCLE **** MAX NUMBER OF SCF CYCLES SET TO         200
 INFORMATION **** SMEAR **** FERMI SMEARING ACTIVE
 FERMI SMEARING - TEMPERATURE SMEARING OF FERMI SURFACE  0.1000E-12
 INFORMATION **** SPINLOCK **** LOCK IN A GIVEN SPIN STATE
 ALPHA-BETA ELECTRONS LOCKED TO   0 FOR 200 SCF CYCLES
 SSSSSSSSSSSSSSSSSSSSSSSSSSSSSSSSSSSSSSSSSSSSSSSSSSSSSSSSSSSSSSSSSSSSSSSSSSSSSS
 ATOMIC SPINS SET TO (ATOM, AT. N., SPIN)
   1 229 1   2 229-1   3 229 1   4 229-1   5 229 1   6 229-1   7 229 1   8 229-1
   9 208 0  10 208 0  11 208 0  12 208 0  13 208 0  14 208 0  15 208 0  16 208 0
  17 208 0  18 208 0  19 208 0  20 208 0  21 208 0  22 208 0  23 208 0  24 208 0
  25 238 0  26 238 0  27 238 0  28 238 0  29 238 0  30 238 0  31 238 0  32 238 0
 INFORMATION **** SAVEWF **** not fully tested
 INFORMATION **** GUESSP **** SCF GUESS FROM A PREVIOUS RUN DENSITY MATRIX
 *******************************************************************************
 N. OF ATOMS PER CELL        32  COULOMB OVERLAP TOL         (T1) 10**   -8
 NUMBER OF SHELLS           280  COULOMB PENETRATION TOL     (T2) 10**   -8
 NUMBER OF AO               856  EXCHANGE OVERLAP TOL        (T3) 10**   -8
 N. OF ELECTRONS PER CELL   266  EXCHANGE PSEUDO OVP (F(G))  (T4) 10**   -8
 CORE ELECTRONS PER CELL      0  EXCHANGE PSEUDO OVP (P(G))  (T5) 10**  -16
 N. OF SYMMETRY OPERATORS     2  POLE ORDER IN MONO ZONE                  4
 *******************************************************************************
 TYPE OF CALCULATION :  UNRESTRICTED OPEN SHELL
 KOHN-SHAM HAMILTONIAN

 (EXCHANGE)[CORRELATION] FUNCTIONAL:(PERDEW-BURKE-ERNZERHOF)[PERDEW-BURKE-ERNZERHOF]


 HYBRID EXCHANGE - PERCENTAGE OF FOCK EXCHANGE    25.0000

 SPIN POLARIZED DFT SELECTED
 CORE  PSEUDO POTENTIAL         TOL. ON PSEUDO              (TP) 10**- 6

 CAPPA:IS1  5;IS2  5;IS3  4; K PTS MONK NET  39; SYMMOPS:K SPACE   4;G SPACE   2

 *******************************************************************************
 MAX NUMBER OF SCF CYCLES     200  CONVERGENCE ON DELTAP        10**-19
 WEIGHT OF F(I) IN F(I+1)      30% CONVERGENCE ON ENERGY        10**- 9
 SHRINK. FACT.(MONKH.)    5  5  4  NUMBER OF K POINTS IN THE IBZ     39
 SHRINKING FACTOR(GILAT NET)   10  NUMBER OF K POINTS(GILAT NET)    260
 *******************************************************************************
 *** K POINTS COORDINATES (OBLIQUE COORDINATES IN UNITS OF IS =  5)
   1-R(  0  0  0)   2-C(  1  0  0)   3-C(  2  0  0)   4-C(  0  1  0)
   5-C(  1  1  0)   6-C(  2  1  0)   7-C(  3  1  0)   8-C(  4  1  0)
   9-C(  0  2  0)  10-C(  1  2  0)  11-C(  2  2  0)  12-C(  3  2  0)
  13-C(  4  2  0)  14-C(  0  0  1)  15-C(  1  0  1)  16-C(  2  0  1)
  17-C(  0  1  1)  18-C(  1  1  1)  19-C(  2  1  1)  20-C(  3  1  1)
  21-C(  4  1  1)  22-C(  0  2  1)  23-C(  1  2  1)  24-C(  2  2  1)
  25-C(  3  2  1)  26-C(  4  2  1)  27-R(  0  0  2)  28-C(  1  0  2)
  29-C(  2  0  2)  30-C(  0  1  2)  31-C(  1  1  2)  32-C(  2  1  2)
  33-C(  3  1  2)  34-C(  4  1  2)  35-C(  0  2  2)  36-C(  1  2  2)
  37-C(  2  2  2)  38-C(  3  2  2)  39-C(  4  2  2)

 DIRECT LATTICE VECTORS COMPON. (A.U.)     RECIP. LATTICE VECTORS COMPON. (A.U.) 
        X            Y            Z              X            Y            Z
  -14.8451216  -14.8451216    0.0000000     -0.2116246   -0.2116246    0.0000000
   14.8451216  -14.8451216    0.0000000      0.2116246   -0.2116246    0.0000000
    0.0000000    0.0000000    6.4889416      0.0000000    0.0000000    0.9682912

 DISK SPACE FOR EIGENVECTORS (FTN 10)    55687936 REALS

 SYMMETRY ADAPTION OF THE BLOCH FUNCTIONS ENABLED
 TTTTTTTTTTTTTTTTTTTTTTTTTTTTTT gordsh1     TELAPSE        1.67 TCPU        0.02

 MATRIX SIZE: P(G) 4556392, F(G)  814192, P(G) IRR 1334224, F(G) IRR  500744
 MAX G-VECTOR INDEX FOR 1- AND 2-ELECTRON INTEGRALS  75

 TTTTTTTTTTTTTTTTTTTTTTTTTTTTTT INPUT       TELAPSE        1.86 TCPU        0.21

 NEIGHBORS OF THE NON-EQUIVALENT ATOMS

 N = NUMBER OF NEIGHBORS AT DISTANCE R
    ATOM  N     R/ANG      R/AU   NEIGHBORS (ATOM LABELS AND CELL INDICES)
   1 CU   4     1.9639     3.7113    9 O    0 1 0   15 O    0 0 0   17 O    0 0 0
                                    20 O    0 1 0
   1 CU   8     3.2652     6.1704   25 SR  -1 0 0   25 SR  -1 0-1   28 SR   0 1 0
                                    28 SR   0 1-1   30 SR   0 0 0   30 SR   0 0-1
                                    31 SR   0 0 0   31 SR   0 0-1
   1 CU   2     3.4338     6.4889    1 CU   0 0-1    1 CU   0 0 1
   1 CU   4     3.9278     7.4226    2 CU  -1 0 0    4 CU   0 1 0    5 CU  -1 1 0
                                     7 CU   0 0 0
   1 CU   8     3.9558     7.4753    9 O    0 1 1    9 O    0 1-1   15 O    0 0-1
                                    15 O    0 0 1   17 O    0 0 1   17 O    0 0-1
                                    20 O    0 1 1   20 O    0 1-1
   1 CU   8     4.3915     8.2987   10 O   -1 0 0   12 O    0 1 0   14 O    0 1 0
                                    16 O    0 0 0   21 O   -1 1 0   22 O    0 0 0
                                    23 O    0 0 0   24 O    0 1 0

   2 CU   4     1.9639     3.7113   10 O    0 0 0   16 O    1 0 0   17 O    1 0 0
                                    18 O    0 0 0
   2 CU   8     3.2652     6.1704   25 SR   0 0 0   25 SR   0 0-1   26 SR   0 0 0
                                    26 SR   0 0-1   31 SR   1 0 0   31 SR   1 0-1
                                    32 SR   0 0 0   32 SR   0 0-1
   2 CU   2     3.4338     6.4889    2 CU   0 0-1    2 CU   0 0 1
   2 CU   4     3.9278     7.4226    1 CU   1 0 0    3 CU   0 0 0    6 CU   0 0 0
                                     8 CU   1 0 0
   2 CU   8     3.9558     7.4753   10 O    0 0 1   10 O    0 0-1   16 O    1 0 1
                                    16 O    1 0-1   17 O    1 0 1   17 O    1 0-1
                                    18 O    0 0 1   18 O    0 0-1
   2 CU   8     4.3915     8.2987    9 O    1 1 0   11 O    0 0 0   13 O    0 0 0
                                    15 O    1 0 0   21 O    0 1 0   22 O    0 0 0
                                    23 O    1 0 0   24 O    1 0 0

   3 CU   4     1.9639     3.7113   11 O    0 0 0   13 O    0 0 0   18 O    0 0 0
                                    19 O    0 0 0
   3 CU   8     3.2652     6.1704   26 SR   0 0 0   26 SR   0 0-1   27 SR   0 0 0
                                    27 SR   0 0-1   29 SR   0 0 0   29 SR   0 0-1
                                    32 SR   0 0 0   32 SR   0 0-1
   3 CU   2     3.4338     6.4889    3 CU   0 0-1    3 CU   0 0 1
   3 CU   4     3.9278     7.4226    2 CU   0 0 0    4 CU   0 0 0    5 CU   0 0 0
                                     7 CU   0 0 0
   3 CU   8     3.9558     7.4753   11 O    0 0 1   11 O    0 0-1   13 O    0 0-1
                                    13 O    0 0 1   18 O    0 0-1   18 O    0 0 1
                                    19 O    0 0 1   19 O    0 0-1
   3 CU   8     4.3915     8.2987   10 O    0 0 0   12 O    0 0 0   14 O    0 0 0
                                    16 O    1 0 0   21 O    0 0 0   22 O    0 0 0
                                    23 O    0 0 0   24 O    1 0 0

   4 CU   4     1.9639     3.7113   12 O    0 0 0   14 O    0 0 0   19 O    0 0 0
                                    20 O    0 0 0
   4 CU   8     3.2652     6.1704   27 SR   0 0 0   27 SR   0 0-1   28 SR   0 0 0
                                    28 SR   0 0-1   29 SR   0 0 0   29 SR   0 0-1
                                    30 SR   0-1 0   30 SR   0-1-1
   4 CU   2     3.4338     6.4889    4 CU   0 0-1    4 CU   0 0 1
   4 CU   4     3.9279     7.4226    1 CU   0-1 0    3 CU   0 0 0    6 CU   0-1 0
                                     8 CU   0 0 0
   4 CU   8     3.9558     7.4753   12 O    0 0 1   12 O    0 0-1   14 O    0 0-1
                                    14 O    0 0 1   19 O    0 0-1   19 O    0 0 1
                                    20 O    0 0 1   20 O    0 0-1
   4 CU   8     4.3915     8.2987    9 O    0 0 0   11 O    0 0 0   13 O    0 0 0
                                    15 O    0-1 0   21 O    0 0 0   22 O    0-1 0
                                    23 O    0 0 0   24 O    0 0 0

   5 CU   4     1.9639     3.7113    9 O    1 0 0   13 O    0 0 0   21 O    0 0 0
                                    24 O    1 0 0
   5 CU   8     3.2652     6.1704   25 SR   0-1 0   25 SR   0-1-1   28 SR   1 0 0
                                    28 SR   1 0-1   29 SR   0 0 0   29 SR   0 0-1
                                    32 SR   0 0 0   32 SR   0 0-1
   5 CU   2     3.4338     6.4889    5 CU   0 0-1    5 CU   0 0 1
   5 CU   4     3.9278     7.4226    1 CU   1-1 0    3 CU   0 0 0    6 CU   0-1 0
                                     8 CU   1 0 0
   5 CU   8     3.9558     7.4753    9 O    1 0 1    9 O    1 0-1   13 O    0 0 1
                                    13 O    0 0-1   21 O    0 0 1   21 O    0 0-1
                                    24 O    1 0 1   24 O    1 0-1
   5 CU   8     4.3915     8.2987   10 O    0-1 0   12 O    1 0 0   14 O    0 0 0
                                    16 O    1 0 0   17 O    1-1 0   18 O    0 0 0
                                    19 O    0 0 0   20 O    1 0 0

   6 CU   4     1.9639     3.7113   10 O    0 0 0   14 O    0 1 0   21 O    0 1 0
                                    22 O    0 0 0
   6 CU   8     3.2652     6.1704   25 SR   0 0 0   25 SR   0 0-1   26 SR   0 0 0
                                    26 SR   0 0-1   29 SR   0 1 0   29 SR   0 1-1
                                    30 SR   0 0 0   30 SR   0 0-1
   6 CU   2     3.4338     6.4889    6 CU   0 0-1    6 CU   0 0 1
   6 CU   4     3.9279     7.4226    2 CU   0 0 0    4 CU   0 1 0    5 CU   0 1 0
                                     7 CU   0 0 0
   6 CU   8     3.9558     7.4753   10 O    0 0-1   10 O    0 0 1   14 O    0 1 1
                                    14 O    0 1-1   21 O    0 1 1   21 O    0 1-1
                                    22 O    0 0 1   22 O    0 0-1
   6 CU   8     4.3915     8.2987    9 O    1 1 0   11 O    0 0 0   13 O    0 1 0
                                    15 O    0 0 0   17 O    1 0 0   18 O    0 0 0
                                    19 O    0 1 0   20 O    0 1 0

   7 CU   4     1.9639     3.7113   11 O    0 0 0   15 O    0 0 0   22 O    0 0 0
                                    23 O    0 0 0
   7 CU   8     3.2652     6.1704   26 SR   0 0 0   26 SR   0 0-1   27 SR   0 0 0
                                    27 SR   0 0-1   30 SR   0 0 0   30 SR   0 0-1
                                    31 SR   0 0 0   31 SR   0 0-1
   7 CU   2     3.4338     6.4889    7 CU   0 0-1    7 CU   0 0 1
   7 CU   4     3.9279     7.4226    1 CU   0 0 0    3 CU   0 0 0    6 CU   0 0 0
                                     8 CU   0 0 0
   7 CU   8     3.9558     7.4753   11 O    0 0-1   11 O    0 0 1   15 O    0 0 1
                                    15 O    0 0-1   22 O    0 0-1   22 O    0 0 1
                                    23 O    0 0 1   23 O    0 0-1
   7 CU   8     4.3915     8.2987   10 O    0 0 0   12 O    0 0 0   14 O    0 1 0
                                    16 O    0 0 0   17 O    0 0 0   18 O    0 0 0
                                    19 O    0 0 0   20 O    0 1 0

   8 CU   4     1.9639     3.7113   12 O    0 0 0   16 O    0 0 0   23 O    0 0 0
                                    24 O    0 0 0
   8 CU   8     3.2652     6.1704   27 SR   0 0 0   27 SR   0 0-1   28 SR   0 0 0
                                    28 SR   0 0-1   31 SR   0 0 0   31 SR   0 0-1
                                    32 SR  -1 0 0   32 SR  -1 0-1
   8 CU   2     3.4338     6.4889    8 CU   0 0-1    8 CU   0 0 1
   8 CU   4     3.9278     7.4226    2 CU  -1 0 0    4 CU   0 0 0    5 CU  -1 0 0
                                     7 CU   0 0 0
   8 CU   8     3.9558     7.4753   12 O    0 0-1   12 O    0 0 1   16 O    0 0 1
                                    16 O    0 0-1   23 O    0 0-1   23 O    0 0 1
                                    24 O    0 0 1   24 O    0 0-1
   8 CU   8     4.3915     8.2987    9 O    0 0 0   11 O    0 0 0   13 O   -1 0 0
                                    15 O    0 0 0   17 O    0 0 0   18 O   -1 0 0
                                    19 O    0 0 0   20 O    0 0 0

   9 O    2     1.9639     3.7113    1 CU   0-1 0    5 CU  -1 0 0
   9 O    4     2.6086     4.9295   25 SR  -1-1 0   25 SR  -1-1-1   28 SR   0 0 0
                                    28 SR   0 0-1
   9 O    4     2.7774     5.2485   17 O    0-1 0   20 O    0 0 0   21 O   -1 0 0
                                    24 O    0 0 0
   9 O    2     3.4338     6.4889    9 O    0 0-1    9 O    0 0 1
   9 O    4     3.9279     7.4226   10 O   -1-1 0   12 O    0 0 0   13 O   -1 0 0
                                    15 O    0-1 0
   9 O    4     3.9558     7.4753    1 CU   0-1-1    1 CU   0-1 1    5 CU  -1 0-1
                                     5 CU  -1 0 1

  10 O    2     1.9639     3.7113    2 CU   0 0 0    6 CU   0 0 0
  10 O    4     2.6086     4.9295   25 SR   0 0 0   25 SR   0 0-1   26 SR   0 0 0
                                    26 SR   0 0-1
  10 O    4     2.7774     5.2485   17 O    1 0 0   18 O    0 0 0   21 O    0 1 0
                                    22 O    0 0 0
  10 O    2     3.4338     6.4889   10 O    0 0-1   10 O    0 0 1
  10 O    4     3.9279     7.4226    9 O    1 1 0   11 O    0 0 0   14 O    0 1 0
                                    16 O    1 0 0
  10 O    4     3.9558     7.4753    2 CU   0 0-1    2 CU   0 0 1    6 CU   0 0 1
                                     6 CU   0 0-1

  11 O    2     1.9639     3.7113    3 CU   0 0 0    7 CU   0 0 0
  11 O    4     2.6086     4.9295   26 SR   0 0 0   26 SR   0 0-1   27 SR   0 0 0
                                    27 SR   0 0-1
  11 O    4     2.7774     5.2485   18 O    0 0 0   19 O    0 0 0   22 O    0 0 0
                                    23 O    0 0 0
  11 O    2     3.4338     6.4889   11 O    0 0-1   11 O    0 0 1
  11 O    4     3.9278     7.4226   10 O    0 0 0   12 O    0 0 0   13 O    0 0 0
                                    15 O    0 0 0
  11 O    4     3.9558     7.4753    3 CU   0 0-1    3 CU   0 0 1    7 CU   0 0 1
                                     7 CU   0 0-1

  12 O    2     1.9639     3.7113    4 CU   0 0 0    8 CU   0 0 0
  12 O    4     2.6086     4.9295   27 SR   0 0 0   27 SR   0 0-1   28 SR   0 0 0
                                    28 SR   0 0-1
  12 O    4     2.7774     5.2485   19 O    0 0 0   20 O    0 0 0   23 O    0 0 0
                                    24 O    0 0 0
  12 O    2     3.4338     6.4889   12 O    0 0-1   12 O    0 0 1
  12 O    4     3.9279     7.4226    9 O    0 0 0   11 O    0 0 0   14 O    0 0 0
                                    16 O    0 0 0
  12 O    4     3.9558     7.4753    4 CU   0 0-1    4 CU   0 0 1    8 CU   0 0 1
                                     8 CU   0 0-1

  13 O    2     1.9639     3.7113    3 CU   0 0 0    5 CU   0 0 0
  13 O    4     2.6086     4.9295   29 SR   0 0 0   29 SR   0 0-1   32 SR   0 0 0
                                    32 SR   0 0-1
  13 O    4     2.7774     5.2485   18 O    0 0 0   19 O    0 0 0   21 O    0 0 0
                                    24 O    1 0 0
  13 O    2     3.4338     6.4889   13 O    0 0-1   13 O    0 0 1
  13 O    4     3.9278     7.4226    9 O    1 0 0   11 O    0 0 0   14 O    0 0 0
                                    16 O    1 0 0
  13 O    4     3.9558     7.4753    3 CU   0 0 1    3 CU   0 0-1    5 CU   0 0-1
                                     5 CU   0 0 1

  14 O    2     1.9639     3.7113    4 CU   0 0 0    6 CU   0-1 0
  14 O    4     2.6086     4.9295   29 SR   0 0 0   29 SR   0 0-1   30 SR   0-1 0
                                    30 SR   0-1-1
  14 O    4     2.7774     5.2485   19 O    0 0 0   20 O    0 0 0   21 O    0 0 0
                                    22 O    0-1 0
  14 O    2     3.4338     6.4889   14 O    0 0-1   14 O    0 0 1
  14 O    4     3.9278     7.4226   10 O    0-1 0   12 O    0 0 0   13 O    0 0 0
                                    15 O    0-1 0
  14 O    4     3.9558     7.4753    4 CU   0 0 1    4 CU   0 0-1    6 CU   0-1-1
                                     6 CU   0-1 1

  15 O    2     1.9639     3.7113    1 CU   0 0 0    7 CU   0 0 0
  15 O    4     2.6086     4.9295   30 SR   0 0 0   30 SR   0 0-1   31 SR   0 0 0
                                    31 SR   0 0-1
  15 O    4     2.7774     5.2485   17 O    0 0 0   20 O    0 1 0   22 O    0 0 0
                                    23 O    0 0 0
  15 O    2     3.4338     6.4889   15 O    0 0-1   15 O    0 0 1
  15 O    4     3.9278     7.4226    9 O    0 1 0   11 O    0 0 0   14 O    0 1 0
                                    16 O    0 0 0
  15 O    4     3.9558     7.4753    1 CU   0 0 1    1 CU   0 0-1    7 CU   0 0-1
                                     7 CU   0 0 1

  16 O    2     1.9639     3.7113    2 CU  -1 0 0    8 CU   0 0 0
  16 O    4     2.6086     4.9295   31 SR   0 0 0   31 SR   0 0-1   32 SR  -1 0 0
                                    32 SR  -1 0-1
  16 O    4     2.7774     5.2485   17 O    0 0 0   18 O   -1 0 0   23 O    0 0 0
                                    24 O    0 0 0
  16 O    2     3.4338     6.4889   16 O    0 0-1   16 O    0 0 1
  16 O    4     3.9278     7.4226   10 O   -1 0 0   12 O    0 0 0   13 O   -1 0 0
                                    15 O    0 0 0
  16 O    4     3.9558     7.4753    2 CU  -1 0-1    2 CU  -1 0 1    8 CU   0 0-1
                                     8 CU   0 0 1

  17 O    2     1.9639     3.7113    1 CU   0 0 0    2 CU  -1 0 0
  17 O    4     2.6086     4.9295   25 SR  -1 0 0   25 SR  -1 0-1   31 SR   0 0 0
                                    31 SR   0 0-1
  17 O    4     2.7774     5.2485    9 O    0 1 0   10 O   -1 0 0   15 O    0 0 0
                                    16 O    0 0 0
  17 O    2     3.4338     6.4889   17 O    0 0-1   17 O    0 0 1
  17 O    4     3.9278     7.4226   18 O   -1 0 0   20 O    0 1 0   21 O   -1 1 0
                                    23 O    0 0 0
  17 O    4     3.9558     7.4753    1 CU   0 0-1    1 CU   0 0 1    2 CU  -1 0-1
                                     2 CU  -1 0 1

  18 O    2     1.9639     3.7113    2 CU   0 0 0    3 CU   0 0 0
  18 O    4     2.6086     4.9295   26 SR   0 0 0   26 SR   0 0-1   32 SR   0 0 0
                                    32 SR   0 0-1
  18 O    4     2.7774     5.2485   10 O    0 0 0   11 O    0 0 0   13 O    0 0 0
                                    16 O    1 0 0
  18 O    2     3.4338     6.4889   18 O    0 0-1   18 O    0 0 1
  18 O    4     3.9278     7.4226   17 O    1 0 0   19 O    0 0 0   22 O    0 0 0
                                    24 O    1 0 0
  18 O    4     3.9558     7.4753    2 CU   0 0-1    2 CU   0 0 1    3 CU   0 0 1
                                     3 CU   0 0-1

  19 O    2     1.9639     3.7113    3 CU   0 0 0    4 CU   0 0 0
  19 O    4     2.6086     4.9295   27 SR   0 0 0   27 SR   0 0-1   29 SR   0 0 0
                                    29 SR   0 0-1
  19 O    4     2.7774     5.2485   11 O    0 0 0   12 O    0 0 0   13 O    0 0 0
                                    14 O    0 0 0
  19 O    2     3.4338     6.4889   19 O    0 0-1   19 O    0 0 1
  19 O    4     3.9278     7.4226   18 O    0 0 0   20 O    0 0 0   21 O    0 0 0
                                    23 O    0 0 0
  19 O    4     3.9558     7.4753    3 CU   0 0-1    3 CU   0 0 1    4 CU   0 0 1
                                     4 CU   0 0-1

  20 O    2     1.9639     3.7113    1 CU   0-1 0    4 CU   0 0 0
  20 O    4     2.6086     4.9295   28 SR   0 0 0   28 SR   0 0-1   30 SR   0-1 0
                                    30 SR   0-1-1
  20 O    4     2.7774     5.2485    9 O    0 0 0   12 O    0 0 0   14 O    0 0 0
                                    15 O    0-1 0
  20 O    2     3.4338     6.4889   20 O    0 0-1   20 O    0 0 1
  20 O    4     3.9279     7.4226   17 O    0-1 0   19 O    0 0 0   22 O    0-1 0
                                    24 O    0 0 0
  20 O    4     3.9558     7.4753    1 CU   0-1-1    1 CU   0-1 1    4 CU   0 0-1
                                     4 CU   0 0 1

  21 O    2     1.9639     3.7113    5 CU   0 0 0    6 CU   0-1 0
  21 O    4     2.6086     4.9295   25 SR   0-1 0   25 SR   0-1-1   29 SR   0 0 0
                                    29 SR   0 0-1
  21 O    4     2.7774     5.2485    9 O    1 0 0   10 O    0-1 0   13 O    0 0 0
                                    14 O    0 0 0
  21 O    2     3.4338     6.4889   21 O    0 0-1   21 O    0 0 1
  21 O    4     3.9278     7.4226   17 O    1-1 0   19 O    0 0 0   22 O    0-1 0
                                    24 O    1 0 0
  21 O    4     3.9558     7.4753    5 CU   0 0-1    5 CU   0 0 1    6 CU   0-1-1
                                     6 CU   0-1 1

  22 O    2     1.9639     3.7113    6 CU   0 0 0    7 CU   0 0 0
  22 O    4     2.6086     4.9295   26 SR   0 0 0   26 SR   0 0-1   30 SR   0 0 0
                                    30 SR   0 0-1
  22 O    4     2.7774     5.2485   10 O    0 0 0   11 O    0 0 0   14 O    0 1 0
                                    15 O    0 0 0
  22 O    2     3.4338     6.4889   22 O    0 0-1   22 O    0 0 1
  22 O    4     3.9278     7.4226   18 O    0 0 0   20 O    0 1 0   21 O    0 1 0
                                    23 O    0 0 0
  22 O    4     3.9558     7.4753    6 CU   0 0-1    6 CU   0 0 1    7 CU   0 0 1
                                     7 CU   0 0-1

  23 O    2     1.9639     3.7113    7 CU   0 0 0    8 CU   0 0 0
  23 O    4     2.6086     4.9295   27 SR   0 0 0   27 SR   0 0-1   31 SR   0 0 0
                                    31 SR   0 0-1
  23 O    4     2.7774     5.2485   11 O    0 0 0   12 O    0 0 0   15 O    0 0 0
                                    16 O    0 0 0
  23 O    2     3.4338     6.4889   23 O    0 0-1   23 O    0 0 1
  23 O    4     3.9279     7.4226   17 O    0 0 0   19 O    0 0 0   22 O    0 0 0
                                    24 O    0 0 0
  23 O    4     3.9558     7.4753    7 CU   0 0-1    7 CU   0 0 1    8 CU   0 0 1
                                     8 CU   0 0-1

  24 O    2     1.9639     3.7113    5 CU  -1 0 0    8 CU   0 0 0
  24 O    4     2.6086     4.9295   28 SR   0 0 0   28 SR   0 0-1   32 SR  -1 0 0
                                    32 SR  -1 0-1
  24 O    4     2.7774     5.2485    9 O    0 0 0   12 O    0 0 0   13 O   -1 0 0
                                    16 O    0 0 0
  24 O    2     3.4338     6.4889   24 O    0 0-1   24 O    0 0 1
  24 O    4     3.9279     7.4226   18 O   -1 0 0   20 O    0 0 0   21 O   -1 0 0
                                    23 O    0 0 0
  24 O    4     3.9558     7.4753    5 CU  -1 0-1    5 CU  -1 0 1    8 CU   0 0-1
                                     8 CU   0 0 1

  25 SR   8     2.6086     4.9295    9 O    1 1 0    9 O    1 1 1   10 O    0 0 0
                                    10 O    0 0 1   17 O    1 0 0   17 O    1 0 1
                                    21 O    0 1 0   21 O    0 1 1
  25 SR   8     3.2652     6.1704    1 CU   1 0 0    1 CU   1 0 1    2 CU   0 0 0
                                     2 CU   0 0 1    5 CU   0 1 0    5 CU   0 1 1
                                     6 CU   0 0 0    6 CU   0 0 1
  25 SR   2     3.4338     6.4889   25 SR   0 0-1   25 SR   0 0 1
  25 SR   4     3.9278     7.4226   26 SR   0 0 0   28 SR   1 1 0   29 SR   0 1 0
                                    31 SR   1 0 0
  25 SR  16     4.7152     8.9104   13 O    0 1 0   13 O    0 1 1   14 O    0 1 0
                                    14 O    0 1 1   15 O    1 0 0   15 O    1 0 1
                                    16 O    1 0 0   16 O    1 0 1   18 O    0 0 0
                                    18 O    0 0 1   20 O    1 1 0   20 O    1 1 1
                                    22 O    0 0 0   22 O    0 0 1   24 O    1 1 0
                                    24 O    1 1 1
  25 SR   8     5.2172     9.8590   26 SR   0 0 1   26 SR   0 0-1   28 SR   1 1 1
                                    28 SR   1 1-1   29 SR   0 1 1   29 SR   0 1-1
                                    31 SR   1 0 1   31 SR   1 0-1

  26 SR   8     2.6086     4.9295   10 O    0 0 0   10 O    0 0 1   11 O    0 0 0
                                    11 O    0 0 1   18 O    0 0 0   18 O    0 0 1
                                    22 O    0 0 0   22 O    0 0 1
  26 SR   8     3.2652     6.1704    2 CU   0 0 0    2 CU   0 0 1    3 CU   0 0 0
                                     3 CU   0 0 1    6 CU   0 0 0    6 CU   0 0 1
                                     7 CU   0 0 0    7 CU   0 0 1
  26 SR   2     3.4338     6.4889   26 SR   0 0-1   26 SR   0 0 1
  26 SR   4     3.9278     7.4226   25 SR   0 0 0   27 SR   0 0 0   30 SR   0 0 0
                                    32 SR   0 0 0
  26 SR  16     4.7152     8.9104   13 O    0 0 0   13 O    0 0 1   14 O    0 1 0
                                    14 O    0 1 1   15 O    0 0 0   15 O    0 0 1
                                    16 O    1 0 0   16 O    1 0 1   17 O    1 0 0
                                    17 O    1 0 1   19 O    0 0 0   19 O    0 0 1
                                    21 O    0 1 0   21 O    0 1 1   23 O    0 0 0
                                    23 O    0 0 1
  26 SR   8     5.2172     9.8590   25 SR   0 0-1   25 SR   0 0 1   27 SR   0 0 1
                                    27 SR   0 0-1   30 SR   0 0-1   30 SR   0 0 1
                                    32 SR   0 0 1   32 SR   0 0-1

  27 SR   8     2.6086     4.9295   11 O    0 0 0   11 O    0 0 1   12 O    0 0 0
                                    12 O    0 0 1   19 O    0 0 0   19 O    0 0 1
                                    23 O    0 0 0   23 O    0 0 1
  27 SR   8     3.2652     6.1704    3 CU   0 0 0    3 CU   0 0 1    4 CU   0 0 0
                                     4 CU   0 0 1    7 CU   0 0 0    7 CU   0 0 1
                                     8 CU   0 0 0    8 CU   0 0 1
  27 SR   2     3.4338     6.4889   27 SR   0 0-1   27 SR   0 0 1
  27 SR   4     3.9278     7.4226   26 SR   0 0 0   28 SR   0 0 0   29 SR   0 0 0
                                    31 SR   0 0 0
  27 SR  16     4.7152     8.9104   13 O    0 0 0   13 O    0 0 1   14 O    0 0 0
                                    14 O    0 0 1   15 O    0 0 0   15 O    0 0 1
                                    16 O    0 0 0   16 O    0 0 1   18 O    0 0 0
                                    18 O    0 0 1   20 O    0 0 0   20 O    0 0 1
                                    22 O    0 0 0   22 O    0 0 1   24 O    0 0 0
                                    24 O    0 0 1
  27 SR   8     5.2172     9.8590   26 SR   0 0-1   26 SR   0 0 1   28 SR   0 0 1
                                    28 SR   0 0-1   29 SR   0 0 1   29 SR   0 0-1
                                    31 SR   0 0-1   31 SR   0 0 1

  28 SR   8     2.6086     4.9295    9 O    0 0 0    9 O    0 0 1   12 O    0 0 0
                                    12 O    0 0 1   20 O    0 0 0   20 O    0 0 1
                                    24 O    0 0 0   24 O    0 0 1
  28 SR   8     3.2652     6.1704    1 CU   0-1 0    1 CU   0-1 1    4 CU   0 0 0
                                     4 CU   0 0 1    5 CU  -1 0 0    5 CU  -1 0 1
                                     8 CU   0 0 0    8 CU   0 0 1
  28 SR   2     3.4338     6.4889   28 SR   0 0-1   28 SR   0 0 1
  28 SR   4     3.9279     7.4226   25 SR  -1-1 0   27 SR   0 0 0   30 SR   0-1 0
                                    32 SR  -1 0 0
  28 SR  16     4.7152     8.9104   13 O   -1 0 0   13 O   -1 0 1   14 O    0 0 0
                                    14 O    0 0 1   15 O    0-1 0   15 O    0-1 1
                                    16 O    0 0 0   16 O    0 0 1   17 O    0-1 0
                                    17 O    0-1 1   19 O    0 0 0   19 O    0 0 1
                                    21 O   -1 0 0   21 O   -1 0 1   23 O    0 0 0
                                    23 O    0 0 1
  28 SR   8     5.2172     9.8590   25 SR  -1-1-1   25 SR  -1-1 1   27 SR   0 0-1
                                    27 SR   0 0 1   30 SR   0-1-1   30 SR   0-1 1
                                    32 SR  -1 0-1   32 SR  -1 0 1

  29 SR   8     2.6086     4.9295   13 O    0 0 0   13 O    0 0 1   14 O    0 0 0
                                    14 O    0 0 1   19 O    0 0 0   19 O    0 0 1
                                    21 O    0 0 0   21 O    0 0 1
  29 SR   8     3.2652     6.1704    3 CU   0 0 0    3 CU   0 0 1    4 CU   0 0 0
                                     4 CU   0 0 1    5 CU   0 0 0    5 CU   0 0 1
                                     6 CU   0-1 0    6 CU   0-1 1
  29 SR   2     3.4338     6.4889   29 SR   0 0-1   29 SR   0 0 1
  29 SR   4     3.9278     7.4226   25 SR   0-1 0   27 SR   0 0 0   30 SR   0-1 0
                                    32 SR   0 0 0
  29 SR  16     4.7152     8.9104    9 O    1 0 0    9 O    1 0 1   10 O    0-1 0
                                    10 O    0-1 1   11 O    0 0 0   11 O    0 0 1
                                    12 O    0 0 0   12 O    0 0 1   18 O    0 0 0
                                    18 O    0 0 1   20 O    0 0 0   20 O    0 0 1
                                    22 O    0-1 0   22 O    0-1 1   24 O    1 0 0
                                    24 O    1 0 1
  29 SR   8     5.2172     9.8590   25 SR   0-1-1   25 SR   0-1 1   27 SR   0 0-1
                                    27 SR   0 0 1   30 SR   0-1-1   30 SR   0-1 1
                                    32 SR   0 0-1   32 SR   0 0 1

  30 SR   8     2.6086     4.9295   14 O    0 1 0   14 O    0 1 1   15 O    0 0 0
                                    15 O    0 0 1   20 O    0 1 0   20 O    0 1 1
                                    22 O    0 0 0   22 O    0 0 1
  30 SR   8     3.2652     6.1704    1 CU   0 0 0    1 CU   0 0 1    4 CU   0 1 0
                                     4 CU   0 1 1    6 CU   0 0 0    6 CU   0 0 1
                                     7 CU   0 0 0    7 CU   0 0 1
  30 SR   2     3.4338     6.4889   30 SR   0 0-1   30 SR   0 0 1
  30 SR   4     3.9278     7.4226   26 SR   0 0 0   28 SR   0 1 0   29 SR   0 1 0
                                    31 SR   0 0 0
  30 SR  16     4.7152     8.9104    9 O    0 1 0    9 O    0 1 1   10 O    0 0 0
                                    10 O    0 0 1   11 O    0 0 0   11 O    0 0 1
                                    12 O    0 1 0   12 O    0 1 1   17 O    0 0 0
                                    17 O    0 0 1   19 O    0 1 0   19 O    0 1 1
                                    21 O    0 1 0   21 O    0 1 1   23 O    0 0 0
                                    23 O    0 0 1
  30 SR   8     5.2172     9.8590   26 SR   0 0 1   26 SR   0 0-1   28 SR   0 1 1
                                    28 SR   0 1-1   29 SR   0 1 1   29 SR   0 1-1
                                    31 SR   0 0 1   31 SR   0 0-1

  31 SR   8     2.6086     4.9295   15 O    0 0 0   15 O    0 0 1   16 O    0 0 0
                                    16 O    0 0 1   17 O    0 0 0   17 O    0 0 1
                                    23 O    0 0 0   23 O    0 0 1
  31 SR   8     3.2652     6.1704    1 CU   0 0 0    1 CU   0 0 1    2 CU  -1 0 0
                                     2 CU  -1 0 1    7 CU   0 0 0    7 CU   0 0 1
                                     8 CU   0 0 0    8 CU   0 0 1
  31 SR   2     3.4338     6.4889   31 SR   0 0-1   31 SR   0 0 1
  31 SR   4     3.9279     7.4226   25 SR  -1 0 0   27 SR   0 0 0   30 SR   0 0 0
                                    32 SR  -1 0 0
  31 SR  16     4.7152     8.9104    9 O    0 1 0    9 O    0 1 1   10 O   -1 0 0
                                    10 O   -1 0 1   11 O    0 0 0   11 O    0 0 1
                                    12 O    0 0 0   12 O    0 0 1   18 O   -1 0 0
                                    18 O   -1 0 1   20 O    0 1 0   20 O    0 1 1
                                    22 O    0 0 0   22 O    0 0 1   24 O    0 0 0
                                    24 O    0 0 1
  31 SR   8     5.2172     9.8590   25 SR  -1 0-1   25 SR  -1 0 1   27 SR   0 0 1
                                    27 SR   0 0-1   30 SR   0 0-1   30 SR   0 0 1
                                    32 SR  -1 0-1   32 SR  -1 0 1

  32 SR   8     2.6086     4.9295   13 O    0 0 0   13 O    0 0 1   16 O    1 0 0
                                    16 O    1 0 1   18 O    0 0 0   18 O    0 0 1
                                    24 O    1 0 0   24 O    1 0 1
  32 SR   8     3.2652     6.1704    2 CU   0 0 0    2 CU   0 0 1    3 CU   0 0 0
                                     3 CU   0 0 1    5 CU   0 0 0    5 CU   0 0 1
                                     8 CU   1 0 0    8 CU   1 0 1
  32 SR   2     3.4338     6.4889   32 SR   0 0-1   32 SR   0 0 1
  32 SR   4     3.9278     7.4226   26 SR   0 0 0   28 SR   1 0 0   29 SR   0 0 0
                                    31 SR   1 0 0
  32 SR  16     4.7152     8.9104    9 O    1 0 0    9 O    1 0 1   10 O    0 0 0
                                    10 O    0 0 1   11 O    0 0 0   11 O    0 0 1
                                    12 O    1 0 0   12 O    1 0 1   17 O    1 0 0
                                    17 O    1 0 1   19 O    0 0 0   19 O    0 0 1
                                    21 O    0 0 0   21 O    0 0 1   23 O    1 0 0
                                    23 O    1 0 1
  32 SR   8     5.2172     9.8590   26 SR   0 0-1   26 SR   0 0 1   28 SR   1 0 1
                                    28 SR   1 0-1   29 SR   0 0 1   29 SR   0 0-1
                                    31 SR   1 0 1   31 SR   1 0-1


 SYMMETRY ALLOWED INTERNAL DEGREE(S) OF FREEDOM:  62
 TTTTTTTTTTTTTTTTTTTTTTTTTTTTTT SYMM        TELAPSE        2.63 TCPU        0.90
 TTTTTTTTTTTTTTTTTTTTTTTTTTTTTT INT_SCREEN  TELAPSE        2.66 TCPU        0.92
[...]
 CYC   0 ETOT(AU) -1.841479410640E+03 DETOT -1.84E+03 tst  0.00E+00 PX  1.00E+00
 CYCLE  0 WAVE FUNCTION SAVED IN FORTRAN UNIT 79
 TTTTTTTTTTTTTTTTTTTTTTTTTTTTTT DIIS        TELAPSE     4812.24 TCPU     4778.57
 TTTTTTTTTTTTTTTTTTTTTTTTTTTTTT FDIK        TELAPSE     4887.06 TCPU     4839.71
 SPIN LOCKING: NO ENERGY GAP COMPUTED
 TTTTTTTTTTTTTTTTTTTTTTTTTTTTTT PDIG        TELAPSE     4894.95 TCPU     4841.70
 CHARGE NORMALIZATION FACTOR   1.00000000
 TOTAL ATOMIC CHARGES:
  18.7886194  18.7877462  18.7886274  18.7877494  18.7886227  18.7877464
  18.7886256  18.7877473   6.7191752   6.7193036   6.7191705   6.7192972
   6.7191744   6.7193028   6.7191748   6.7193034   6.7314691   6.7314679
   6.7314637   6.7314690   6.7314693   6.7314676   6.7314615   6.7314685
   1.0111098   1.0111090   1.0111136   1.0111082   1.0111087   1.0111095
   1.0111081   1.0111101
 SUMMED SPIN DENSITY          -0.00000000
 TOTAL ATOMIC SPINS  :
   0.3743107  -0.3746477   0.3743105  -0.3746487   0.3743101  -0.3746473
   0.3743114  -0.3746490   0.1686910  -0.1685504   0.1686897  -0.1685494
   0.1686906  -0.1685501   0.1686907  -0.1685502   0.0000916   0.0000908
   0.0000915   0.0000923   0.0000915   0.0000909   0.0000916   0.0000923
   0.0000070   0.0000069   0.0000070   0.0000069   0.0000070   0.0000069
   0.0000069   0.0000069
 TTTTTTTTTTTTTTTTTTTTTTTTTTTTTT MOQGAD      TELAPSE     4895.09 TCPU     4841.84
 TTTTTTTTTTTTTTTTTTTTTTTTTTTTTT SHELLXN     TELAPSE     8988.89 TCPU     8924.86
 TTTTTTTTTTTTTTTTTTTTTTTTTTTTTT MONMO3      TELAPSE     9629.65 TCPU     9564.69
 NUMERICALLY INTEGRATED DENSITY    132.9993933918    132.9993933988
 TTTTTTTTTTTTTTTTTTTTTTTTTTTTTT NUMDFT      TELAPSE     9663.21 TCPU     9598.25
 CYC   1 ETOT(AU) -1.841479409493E+03 DETOT  1.15E-06 tst  0.00E+00 PX  4.25E-04
 CYCLE  1 WAVE FUNCTION SAVED IN FORTRAN UNIT 79
 TTTTTTTTTTTTTTTTTTTTTTTTTTTTTT DIIS        TELAPSE     9683.72 TCPU     9602.63
 DIIS TEST: 0.19351E-04 AT SCF   CYCLE   1 - MIX   30 %
 TTTTTTTTTTTTTTTTTTTTTTTTTTTTTT FDIK        TELAPSE     9711.84 TCPU     9617.05
 SPIN LOCKING: NO ENERGY GAP COMPUTED
 TTTTTTTTTTTTTTTTTTTTTTTTTTTTTT PDIG        TELAPSE     9715.70 TCPU     9620.90
 CHARGE NORMALIZATION FACTOR   1.00000000
 TOTAL ATOMIC CHARGES:
  18.7868529  18.7887163  18.7868604  18.7887199  18.7868563  18.7887163
  18.7868581  18.7887181   6.7197786   6.7194980   6.7197746   6.7194914
   6.7197780   6.7194971   6.7197786   6.7194976   6.7314846   6.7314833
   6.7314791   6.7314844   6.7314847   6.7314831   6.7314766   6.7314841
   1.0110938   1.0110928   1.0110974   1.0110921   1.0110926   1.0110933
   1.0110920   1.0110940
 SUMMED SPIN DENSITY          -0.00000000
 TOTAL ATOMIC SPINS  :
   0.3750268  -0.3743121   0.3750262  -0.3743134   0.3750259  -0.3743116
   0.3750272  -0.3743137   0.1684220  -0.1687185   0.1684207  -0.1687174
   0.1684216  -0.1687182   0.1684216  -0.1687181  -0.0001929  -0.0001937
  -0.0001929  -0.0001921  -0.0001929  -0.0001936  -0.0001929  -0.0001921
  -0.0000157  -0.0000158  -0.0000157  -0.0000158  -0.0000157  -0.0000158
  -0.0000157  -0.0000158
 TTTTTTTTTTTTTTTTTTTTTTTTTTTTTT MOQGAD      TELAPSE     9715.83 TCPU     9621.04
 TTTTTTTTTTTTTTTTTTTTTTTTTTTTTT SHELLXN     TELAPSE    13816.89 TCPU    13709.77
 TTTTTTTTTTTTTTTTTTTTTTTTTTTTTT MONMO3      TELAPSE    14456.74 TCPU    14349.72
 NUMERICALLY INTEGRATED DENSITY    132.9993932618    132.9993931985
 TTTTTTTTTTTTTTTTTTTTTTTTTTTTTT NUMDFT      TELAPSE    14490.33 TCPU    14383.31
 CYC   2 ETOT(AU) -1.841479403546E+03 DETOT  5.95E-06 tst  2.68E-07 PX  1.21E-03
 CYCLE  2 WAVE FUNCTION SAVED IN FORTRAN UNIT 79
 TTTTTTTTTTTTTTTTTTTTTTTTTTTTTT DIIS        TELAPSE    14514.68 TCPU    14397.26
 DIIS TEST: 0.81192E-04 AT SCF   CYCLE   2 - DIIS ACTIVE - HISTORY:     2 CYCLES
 TTTTTTTTTTTTTTTTTTTTTTTTTTTTTT FDIK        TELAPSE    14544.69 TCPU    14410.09
 SPIN LOCKING: NO ENERGY GAP COMPUTED
 TTTTTTTTTTTTTTTTTTTTTTTTTTTTTT PDIG        TELAPSE    14552.45 TCPU    14412.96
 CHARGE NORMALIZATION FACTOR   1.00000000
 TOTAL ATOMIC CHARGES:
  18.7880111  18.7879549  18.7880189  18.7879633  18.7880144  18.7879534
  18.7880175  18.7879630   6.7194688   6.7194778   6.7194644   6.7194703
   6.7194680   6.7194766   6.7194686   6.7194769   6.7314330   6.7314318
   6.7314281   6.7314335   6.7314331   6.7314310   6.7314257   6.7314334
   1.0111104   1.0111096   1.0111143   1.0111090   1.0111095   1.0111101
   1.0111089   1.0111108
 SUMMED SPIN DENSITY          -0.00000000
 TOTAL ATOMIC SPINS  :
   0.3745945  -0.3746155   0.3745941  -0.3746121   0.3745936  -0.3746167
   0.3745954  -0.3746107   0.1686171  -0.1686093   0.1686156  -0.1686082
   0.1686166  -0.1686090   0.1686165  -0.1686090   0.0000049   0.0000041
   0.0000054   0.0000062   0.0000048   0.0000039   0.0000054   0.0000064
   0.0000007   0.0000007   0.0000008   0.0000007   0.0000007   0.0000007
   0.0000008   0.0000007
 TTTTTTTTTTTTTTTTTTTTTTTTTTTTTT MOQGAD      TELAPSE    14552.59 TCPU    14413.10
 TTTTTTTTTTTTTTTTTTTTTTTTTTTTTT SHELLXN     TELAPSE    18656.16 TCPU    18502.91
 TTTTTTTTTTTTTTTTTTTTTTTTTTTTTT MONMO3      TELAPSE    19285.20 TCPU    19131.95
 NUMERICALLY INTEGRATED DENSITY    132.9993933287    132.9993933147
 TTTTTTTTTTTTTTTTTTTTTTTTTTTTTT NUMDFT      TELAPSE    19318.57 TCPU    19165.31
 CYC   3 ETOT(AU) -1.841479410961E+03 DETOT -7.42E-06 tst  9.38E-08 PX  7.70E-04
 CYCLE  3 WAVE FUNCTION SAVED IN FORTRAN UNIT 79
 TTTTTTTTTTTTTTTTTTTTTTTTTTTTTT DIIS        TELAPSE    19344.60 TCPU    19178.68
 DIIS TEST: 0.62860E-06 AT SCF   CYCLE   3 - DIIS ACTIVE - HISTORY:     3 CYCLES
 TTTTTTTTTTTTTTTTTTTTTTTTTTTTTT FDIK        TELAPSE    19371.94 TCPU    19187.44
 SPIN LOCKING: NO ENERGY GAP COMPUTED
 TTTTTTTTTTTTTTTTTTTTTTTTTTTTTT PDIG        TELAPSE    19376.70 TCPU    19192.20
 CHARGE NORMALIZATION FACTOR   1.00000000
 TOTAL ATOMIC CHARGES:
  18.7880218  18.7880370  18.7880289  18.7880417  18.7880179  18.7880360
  18.7880346  18.7880411   6.7193986   6.7193969   6.7193938   6.7193901
   6.7193977   6.7193959   6.7193981   6.7193965   6.7314625   6.7314612
   6.7314571   6.7314626   6.7314617   6.7314614   6.7314557   6.7314614
   1.0111114   1.0111105   1.0111152   1.0111098   1.0111103   1.0111111
   1.0111098   1.0111117
 SUMMED SPIN DENSITY          -0.00000000
 TOTAL ATOMIC SPINS  :
   0.3745940  -0.3745893   0.3745945  -0.3745887   0.3746003  -0.3745901
   0.3745884  -0.3745877   0.1686258  -0.1686280   0.1686251  -0.1686272
   0.1686254  -0.1686278   0.1686260  -0.1686279  -0.0000015  -0.0000023
  -0.0000014  -0.0000006  -0.0000014  -0.0000025  -0.0000014  -0.0000003
  -0.0000001  -0.0000002  -0.0000001  -0.0000001  -0.0000001  -0.0000002
  -0.0000002  -0.0000001
 TTTTTTTTTTTTTTTTTTTTTTTTTTTTTT MOQGAD      TELAPSE    19376.84 TCPU    19192.34
 TTTTTTTTTTTTTTTTTTTTTTTTTTTTTT SHELLXN     TELAPSE    23478.22 TCPU    23276.56
 TTTTTTTTTTTTTTTTTTTTTTTTTTTTTT MONMO3      TELAPSE    24115.54 TCPU    23913.83
 NUMERICALLY INTEGRATED DENSITY    132.9993933520    132.9993933363
 TTTTTTTTTTTTTTTTTTTTTTTTTTTTTT NUMDFT      TELAPSE    24149.06 TCPU    23947.35
 CYC   4 ETOT(AU) -1.841479411066E+03 DETOT -1.05E-07 tst  3.51E-10 PX  5.85E-05
 CYCLE  4 WAVE FUNCTION SAVED IN FORTRAN UNIT 79
 TTTTTTTTTTTTTTTTTTTTTTTTTTTTTT DIIS        TELAPSE    24174.51 TCPU    23960.21
 DIIS TEST: 0.40582E-07 AT SCF   CYCLE   4 - DIIS ACTIVE - HISTORY:     4 CYCLES
 TTTTTTTTTTTTTTTTTTTTTTTTTTTTTT FDIK        TELAPSE    24203.64 TCPU    23971.21
 SPIN LOCKING: NO ENERGY GAP COMPUTED
 TTTTTTTTTTTTTTTTTTTTTTTTTTTTTT PDIG        TELAPSE    24208.90 TCPU    23975.86
 CHARGE NORMALIZATION FACTOR   1.00000000
 TOTAL ATOMIC CHARGES:
  18.7879840  18.7879798  18.7879986  18.7879823  18.7880370  18.7879841
  18.7879470  18.7879762   6.7194021   6.7194023   6.7193954   6.7193950
   6.7194010   6.7194010   6.7193998   6.7194017   6.7315088   6.7315082
   6.7315038   6.7315085   6.7315143   6.7315035   6.7314961   6.7315123
   1.0111076   1.0111062   1.0111108   1.0111060   1.0111068   1.0111066
   1.0111051   1.0111080
 SUMMED SPIN DENSITY          -0.00000000
 TOTAL ATOMIC SPINS  :
   0.3746297  -0.3746308   0.3746244  -0.3746318   0.3745923  -0.3746272
   0.3746621  -0.3746352   0.1686373  -0.1686349   0.1686351  -0.1686340
   0.1686371  -0.1686348   0.1686357  -0.1686347   0.0000011   0.0000002
   0.0000011   0.0000020   0.0000012   0.0000001   0.0000011   0.0000022
  -0.0000001   0.0000002   0.0000002  -0.0000002  -0.0000001   0.0000002
   0.0000002  -0.0000001
 TTTTTTTTTTTTTTTTTTTTTTTTTTTTTT MOQGAD      TELAPSE    24209.04 TCPU    23976.00
 TTTTTTTTTTTTTTTTTTTTTTTTTTTTTT SHELLXN     TELAPSE    28313.04 TCPU    28060.73
 TTTTTTTTTTTTTTTTTTTTTTTTTTTTTT MONMO3      TELAPSE    28940.55 TCPU    28687.74
 NUMERICALLY INTEGRATED DENSITY    132.9993933385    132.9993933235
 TTTTTTTTTTTTTTTTTTTTTTTTTTTTTT NUMDFT      TELAPSE    28975.37 TCPU    28722.37
 CYC   5 ETOT(AU) -1.841479411013E+03 DETOT  5.36E-08 tst  2.17E-09 PX  1.01E-04
 CYCLE  5 WAVE FUNCTION SAVED IN FORTRAN UNIT 79
 TTTTTTTTTTTTTTTTTTTTTTTTTTTTTT DIIS        TELAPSE    29004.03 TCPU    28741.01
 DIIS TEST: 0.14922E-06 AT SCF   CYCLE   5 - DIIS ACTIVE - HISTORY:     5 CYCLES
 TTTTTTTTTTTTTTTTTTTTTTTTTTTTTT FDIK        TELAPSE    29035.39 TCPU    28752.79
 SPIN LOCKING: NO ENERGY GAP COMPUTED
 TTTTTTTTTTTTTTTTTTTTTTTTTTTTTT PDIG        TELAPSE    29041.45 TCPU    28758.85
 CHARGE NORMALIZATION FACTOR   1.00000000
 TOTAL ATOMIC CHARGES:
  18.7880091  18.7880025  18.7880053  18.7880118  18.7879160  18.7879946
  18.7880999  18.7880178   6.7194000   6.7193996   6.7193952   6.7193930
   6.7193987   6.7193985   6.7193998   6.7193995   6.7314860   6.7314837
   6.7314801   6.7314865   6.7314767   6.7314915   6.7314873   6.7314779
   1.0111104   1.0111110   1.0111160   1.0111091   1.0111094   1.0111116
   1.0111104   1.0111109
 SUMMED SPIN DENSITY          -0.00000000
 TOTAL ATOMIC SPINS  :
   0.3746241  -0.3746310   0.3746327  -0.3746267   0.3746970  -0.3746372
   0.3745598  -0.3746203   0.1686426  -0.1686440   0.1686458  -0.1686440
   0.1686420  -0.1686441   0.1686469  -0.1686445   0.0000000  -0.0000008
   0.0000002   0.0000010   0.0000006  -0.0000017  -0.0000004   0.0000019
   0.0000003  -0.0000004  -0.0000002   0.0000003   0.0000004  -0.0000004
  -0.0000003   0.0000004
 TTTTTTTTTTTTTTTTTTTTTTTTTTTTTT MOQGAD      TELAPSE    29041.59 TCPU    28758.99
 TTTTTTTTTTTTTTTTTTTTTTTTTTTTTT SHELLXN     TELAPSE    33131.75 TCPU    32840.25
 TTTTTTTTTTTTTTTTTTTTTTTTTTTTTT MONMO3      TELAPSE    33777.13 TCPU    33485.60
 NUMERICALLY INTEGRATED DENSITY    132.9993933484    132.9993933332
 TTTTTTTTTTTTTTTTTTTTTTTTTTTTTT NUMDFT      TELAPSE    33810.69 TCPU    33519.16
 CYC   6 ETOT(AU) -1.841479411002E+03 DETOT  1.05E-08 tst  1.62E-09 PX  1.31E-04
 CYCLE  6 WAVE FUNCTION SAVED IN FORTRAN UNIT 79
 TTTTTTTTTTTTTTTTTTTTTTTTTTTTTT DIIS        TELAPSE    33834.61 TCPU    33531.50
 DIIS TEST: 0.12359E-06 AT SCF   CYCLE   6 - DIIS ACTIVE - HISTORY:     6 CYCLES
 TTTTTTTTTTTTTTTTTTTTTTTTTTTTTT FDIK        TELAPSE    33865.46 TCPU    33544.47
 SPIN LOCKING: NO ENERGY GAP COMPUTED
 TTTTTTTTTTTTTTTTTTTTTTTTTTTTTT PDIG        TELAPSE    33870.56 TCPU    33546.71
 CHARGE NORMALIZATION FACTOR   1.00000000
 TOTAL ATOMIC CHARGES:
  18.7880056  18.7880113  18.7880161  18.7880155  18.7880262  18.7880114
  18.7879973  18.7880134   6.7194000   6.7193993   6.7193946   6.7193924
   6.7193989   6.7193981   6.7193992   6.7193989   6.7314800   6.7314789
   6.7314748   6.7314799   6.7314815   6.7314773   6.7314711   6.7314807
   1.0111124   1.0111114   1.0111161   1.0111109   1.0111116   1.0111118
   1.0111105   1.0111129
 SUMMED SPIN DENSITY          -0.00000000
 TOTAL ATOMIC SPINS  :
   0.3746291  -0.3746278   0.3746268  -0.3746272   0.3746171  -0.3746277
   0.3746387  -0.3746272   0.1686465  -0.1686463   0.1686453  -0.1686458
   0.1686462  -0.1686463   0.1686461  -0.1686464  -0.0000002  -0.0000011
  -0.0000001   0.0000008   0.0000001  -0.0000015  -0.0000003   0.0000013
  -0.0000001   0.0000000   0.0000001  -0.0000001  -0.0000000   0.0000000
   0.0000000  -0.0000001
 TTTTTTTTTTTTTTTTTTTTTTTTTTTTTT MOQGAD      TELAPSE    33870.70 TCPU    33546.85
 TTTTTTTTTTTTTTTTTTTTTTTTTTTTTT SHELLXN     TELAPSE    37975.24 TCPU    37633.45
 TTTTTTTTTTTTTTTTTTTTTTTTTTTTTT MONMO3      TELAPSE    38609.85 TCPU    38267.53
 NUMERICALLY INTEGRATED DENSITY    132.9993933503    132.9993933351
 TTTTTTTTTTTTTTTTTTTTTTTTTTTTTT NUMDFT      TELAPSE    38643.59 TCPU    38301.25
 CYC   7 ETOT(AU) -1.841479411008E+03 DETOT -5.70E-09 tst  9.42E-10 PX  1.01E-04
 CYCLE  7 WAVE FUNCTION SAVED IN FORTRAN UNIT 79
 TTTTTTTTTTTTTTTTTTTTTTTTTTTTTT DIIS        TELAPSE    38672.16 TCPU    38311.01
 DIIS TEST: 0.63846E-08 AT SCF   CYCLE   7 - DIIS ACTIVE - HISTORY:     7 CYCLES
 TTTTTTTTTTTTTTTTTTTTTTTTTTTTTT FDIK        TELAPSE    38702.84 TCPU    38321.24
 SPIN LOCKING: NO ENERGY GAP COMPUTED
 TTTTTTTTTTTTTTTTTTTTTTTTTTTTTT PDIG        TELAPSE    38707.36 TCPU    38325.76
 CHARGE NORMALIZATION FACTOR   1.00000000
 TOTAL ATOMIC CHARGES:
  18.7880053  18.7880077  18.7880137  18.7880111  18.7880057  18.7880127
  18.7880142  18.7880047   6.7193999   6.7193993   6.7193933   6.7193921
   6.7193987   6.7193981   6.7193978   6.7193987   6.7314819   6.7314807
   6.7314763   6.7314817   6.7314825   6.7314809   6.7314736   6.7314807
   1.0111137   1.0111130   1.0111176   1.0111121   1.0111128   1.0111134
   1.0111120   1.0111141
 SUMMED SPIN DENSITY           0.00000000
 TOTAL ATOMIC SPINS  :
   0.3746298  -0.3746300   0.3746289  -0.3746298   0.3746332  -0.3746261
   0.3746261  -0.3746332   0.1686474  -0.1686475   0.1686474  -0.1686469
   0.1686471  -0.1686475   0.1686482  -0.1686474  -0.0000000  -0.0000010
   0.0000001   0.0000010   0.0000005  -0.0000016  -0.0000003   0.0000017
   0.0000000  -0.0000000  -0.0000000  -0.0000000   0.0000001  -0.0000000
  -0.0000001  -0.0000000
 TTTTTTTTTTTTTTTTTTTTTTTTTTTTTT MOQGAD      TELAPSE    38707.49 TCPU    38325.89
 TTTTTTTTTTTTTTTTTTTTTTTTTTTTTT SHELLXN     TELAPSE    42807.69 TCPU    42410.34
 TTTTTTTTTTTTTTTTTTTTTTTTTTTTTT MONMO3      TELAPSE    43466.57 TCPU    43069.17
 NUMERICALLY INTEGRATED DENSITY    132.9993933476    132.9993933324
 TTTTTTTTTTTTTTTTTTTTTTTTTTTTTT NUMDFT      TELAPSE    43500.12 TCPU    43102.72
 CYC   8 ETOT(AU) -1.841479410994E+03 DETOT  1.34E-08 tst  1.27E-10 PX  2.20E-05
 CYCLE  8 WAVE FUNCTION SAVED IN FORTRAN UNIT 79
 TTTTTTTTTTTTTTTTTTTTTTTTTTTTTT DIIS        TELAPSE    43529.33 TCPU    43112.56
 DIIS TEST: 0.10933E-08 AT SCF   CYCLE   8 - DIIS ACTIVE - HISTORY:     8 CYCLES
 TTTTTTTTTTTTTTTTTTTTTTTTTTTTTT FDIK        TELAPSE    43556.55 TCPU    43125.47
 SPIN LOCKING: NO ENERGY GAP COMPUTED
 TTTTTTTTTTTTTTTTTTTTTTTTTTTTTT PDIG        TELAPSE    43561.09 TCPU    43130.01
 CHARGE NORMALIZATION FACTOR   1.00000000
 TOTAL ATOMIC CHARGES:
  18.7880052  18.7880054  18.7880129  18.7880133  18.7880075  18.7879957
  18.7880122  18.7880213   6.7194000   6.7193996   6.7193941   6.7193926
   6.7193988   6.7193983   6.7193986   6.7193991   6.7314823   6.7314810
   6.7314771   6.7314825   6.7314814   6.7314799   6.7314758   6.7314827
   1.0111129   1.0111120   1.0111170   1.0111116   1.0111120   1.0111126
   1.0111114   1.0111135
 SUMMED SPIN DENSITY          -0.00000000
 TOTAL ATOMIC SPINS  :
   0.3746293  -0.3746313   0.3746288  -0.3746277   0.3746313  -0.3746385
   0.3746271  -0.3746201   0.1686474  -0.1686470   0.1686472  -0.1686473
   0.1686471  -0.1686471   0.1686480  -0.1686476   0.0000000  -0.0000010
   0.0000001   0.0000011   0.0000004  -0.0000017  -0.0000003   0.0000018
  -0.0000001  -0.0000001   0.0000001   0.0000000   0.0000000  -0.0000001
   0.0000000   0.0000000
 TTTTTTTTTTTTTTTTTTTTTTTTTTTTTT MOQGAD      TELAPSE    43561.23 TCPU    43130.15
 TTTTTTTTTTTTTTTTTTTTTTTTTTTTTT SHELLXN     TELAPSE    47666.45 TCPU    47214.98
 TTTTTTTTTTTTTTTTTTTTTTTTTTTTTT MONMO3      TELAPSE    48310.19 TCPU    47858.65
 NUMERICALLY INTEGRATED DENSITY    132.9993933478    132.9993933326
 TTTTTTTTTTTTTTTTTTTTTTTTTTTTTT NUMDFT      TELAPSE    48343.67 TCPU    47892.13
 CYC   9 ETOT(AU) -1.841479410994E+03 DETOT  6.55E-11 tst  2.47E-11 PX  1.60E-05
 CYCLE  9 WAVE FUNCTION SAVED IN FORTRAN UNIT 79
 TTTTTTTTTTTTTTTTTTTTTTTTTTTTTT DIIS        TELAPSE    48377.37 TCPU    47900.57
 DIIS TEST: 0.19472E-08 AT SCF   CYCLE   9 - DIIS ACTIVE - HISTORY:     9 CYCLES
 TTTTTTTTTTTTTTTTTTTTTTTTTTTTTT FDIK        TELAPSE    48406.21 TCPU    47910.75
 SPIN LOCKING: NO ENERGY GAP COMPUTED
 TTTTTTTTTTTTTTTTTTTTTTTTTTTTTT PDIG        TELAPSE    48410.99 TCPU    47915.54
 CHARGE NORMALIZATION FACTOR   1.00000000
 TOTAL ATOMIC CHARGES:
  18.7880040  18.7880078  18.7880126  18.7880112  18.7880065  18.7880116
  18.7880133  18.7880044   6.7194006   6.7194004   6.7193956   6.7193935
   6.7193993   6.7193992   6.7194002   6.7194000   6.7314829   6.7314817
   6.7314776   6.7314828   6.7314829   6.7314824   6.7314754   6.7314813
   1.0111118   1.0111109   1.0111156   1.0111102   1.0111109   1.0111114
   1.0111100   1.0111122
 SUMMED SPIN DENSITY           0.00000000
 TOTAL ATOMIC SPINS  :
   0.3746290  -0.3746286   0.3746278  -0.3746282   0.3746313  -0.3746255
   0.3746247  -0.3746317   0.1686471  -0.1686471   0.1686470  -0.1686466
   0.1686468  -0.1686471   0.1686477  -0.1686470   0.0000000  -0.0000010
   0.0000001   0.0000011   0.0000005  -0.0000017  -0.0000005   0.0000018
   0.0000000  -0.0000000  -0.0000000  -0.0000000   0.0000001  -0.0000000
  -0.0000000   0.0000000
 TTTTTTTTTTTTTTTTTTTTTTTTTTTTTT MOQGAD      TELAPSE    48411.13 TCPU    47915.68
 TTTTTTTTTTTTTTTTTTTTTTTTTTTTTT SHELLXN     TELAPSE    52500.23 TCPU    51998.55
 +++ ENERGIES IN A.U. +++
 ::: EXT EL-POLE                                  -1.5073821461014E+04
 ::: EXT EL-SPHEROPOLE                             5.2719056338187E+01
 ::: BIELET ZONE E-E                               1.5908359440541E+04
 ::: TOTAL E-E                                     8.8725703586481E+02
 ::: TOTAL E-N + N-E                              -2.9339399938389E+03
 ::: TOTAL N-N                                    -8.2862678999312E+02
 ::: KINETIC ENERGY                                1.1977004421041E+03
 ::: PSEUDO TOTAL   ENERGY                        -1.6776093058631E+03
 ::: VIRIAL COEFFICIENT                            8.3309316010273E-01
 TTTTTTTTTTTTTTTTTTTTTTTTTTTTTT MONMO3      TELAPSE    53146.41 TCPU    52644.82
 NUMERICALLY INTEGRATED DENSITY    132.9993933481    132.9993933329
 TTTTTTTTTTTTTTTTTTTTTTTTTTTTTT NUMDFT      TELAPSE    53179.94 TCPU    52678.34
 CYC  10 ETOT(AU) -1.841479410995E+03 DETOT -8.13E-10 tst  2.27E-11 PX  1.60E-05

 == SCF ENDED - CONVERGENCE ON ENERGY      E(AU) -1.8414794109951E+03 CYCLES  10


 ENERGY EXPRESSION=HARTREE+FOCK EXCH*0.25000+(PBE        EXCH)*0.75000+PBE        CORR

 FINITE TEMPERATURE DFT CALCULATION 
 TEMPERATURE      (T)    1.000000000000E-13 HARTREE 
 ENERGY           (E)   -1.841479410995E+03
 FREE ENERGY      (F)   -1.841479410995E+03
 ELECTRON ENTROPY (S)    0.000000000000E+00
 (E(T)+F(T))/2    (E0)  -1.841479410995E+03


 TOTAL ENERGY(DFT)(AU)( 10) -1.8414794109951E+03 DE-8.1E-10 tester 2.3E-11
 TTTTTTTTTTTTTTTTTTTTTTTTTTTTTT EDFT        TELAPSE    53180.23 TCPU    52678.37
 EIGENVECTORS IN FORTRAN UNIT  8
 TTTTTTTTTTTTTTTTTTTTTTTTTTTTTT END         TELAPSE    53188.67 TCPU    52684.29
 EEEEEEEEEE TERMINATION  DATE 07 06 2018 TIME 01:56:59.7
NODE    0 CPU TIME =     52684.292
NODE    1 CPU TIME =     52677.343
NODE    2 CPU TIME =     52715.978
NODE    3 CPU TIME =     52687.148
NODE    4 CPU TIME =     52697.129
NODE    5 CPU TIME =     52689.945
NODE    6 CPU TIME =     52763.246
NODE    7 CPU TIME =     52724.287
NODE    8 CPU TIME =     52719.042
NODE    9 CPU TIME =     52708.744
NODE   10 CPU TIME =     52690.973
NODE   11 CPU TIME =     52718.418
NODE   12 CPU TIME =     52716.812
NODE   13 CPU TIME =     52651.592
NODE   14 CPU TIME =     52671.460
NODE   15 CPU TIME =     52655.493
    TOTAL CPU TIME =    843171.900
