--------------------------------------------------------------------------
WARNING: No preset parameters were found for the device that Open MPI
detected:

  Local host:            golub379
  Device name:           mlx4_0
  Device vendor ID:      0x02c9
  Device vendor part ID: 4099

Default device parameters will be used, which may result in lower
performance.  You can edit any of the files specified by the
btl_openib_device_param_files MCA parameter to set values for your
device.

NOTE: You can turn off this warning by setting the MCA parameter
      btl_openib_warn_no_device_params_found to 0.
--------------------------------------------------------------------------
 PROCESS            8  OF           28  WORKING
 PROCESS           16  OF           28  WORKING
 PROCESS           26  OF           28  WORKING
 PROCESS           17  OF           28  WORKING
 PROCESS           27  OF           28  WORKING
 PROCESS            6  OF           28  WORKING
 PROCESS           18  OF           28  WORKING
 PROCESS           24  OF           28  WORKING
 PROCESS            7  OF           28  WORKING
 PROCESS           20  OF           28  WORKING
 PROCESS           25  OF           28  WORKING
 PROCESS            0  OF           28  WORKING
 PROCESS            5  OF           28  WORKING
 PROCESS           12  OF           28  WORKING
 PROCESS           15  OF           28  WORKING
 PROCESS           19  OF           28  WORKING
 PROCESS           22  OF           28  WORKING
 PROCESS            4  OF           28  WORKING
 PROCESS           10  OF           28  WORKING
 PROCESS           11  OF           28  WORKING
 PROCESS           23  OF           28  WORKING
 PROCESS            9  OF           28  WORKING
 PROCESS            1  OF           28  WORKING
 PROCESS            2  OF           28  WORKING
 PROCESS           21  OF           28  WORKING
 PROCESS           14  OF           28  WORKING
 PROCESS            3  OF           28  WORKING
 PROCESS           13  OF           28  WORKING

         
 *******************************************************************************
 *                                                                             *
 *                               CRYSTAL17                                     *
 *                      public : 1.0.1 - Jun 21st, 2017                        *
 *                       HTTP://WWW.CRYSTAL.UNITO.IT                           *
 *                                                                             *
 *                              MAIN AUTHORS                                   *
 *                                                                             *
 *  R. DOVESI(1,11), V.R. SAUNDERS(2), C. ROETTI(1,11), R. ORLANDO(1,11),      *
 *  C.M. ZICOVICH-WILSON(1,3), F. PASCALE(4), B. CIVALLERI(1,11),              *
 *  K. DOLL(5), N.M. HARRISON(2,6), I.J. BUSH(7), Ph. D'ARCO(8),               *
 *  M. LLUNELL(9), M. CAUSA'(10), Y. NOEL(8), L. MASCHIO(1,11), A. ERBA(1,11)  *
 *  M. RE'RAT(14), S. CASASSA(1,11)                                            *
 *                                                                             *
 *        CONTRIBUTIONS TO THE CODE HAVE ALSO BEEN GIVEN BY                    *
 *                                                                             *
 *  M. FERRABONE(1,11), M. DE LA PIERRE(1,11), M. FERRERO(1,11),               *
 *  J. BAIMA(1,11), E. ALBANESE(1,11), M.F. PEINTINGER(12), R. BAST(13),       *
 *  B. KIRTMAN(15), V. LACIVITA(1,11), R. DEMICHELIS(1,16)                     *
 *  G. BRANDEBURG(17), S. SALUSTRO(1,11), G. SANSONE(1,11)                     *
 *  M.T. RUGGIERO(18)                                                          *
 *                                                                             *
 * (1) THEORETICAL CHEMISTRY GROUP - UNIVERSITA' DI TORINO - TORINO (ITALY)    *

 * (2) COMPUTATIONAL SCIENCE & ENGINEERING DEPARTMENT - STFC DARESBURY (UK)    *
 * (3) UNIVERSIDAD AUTONOMA DEL ESTADO DE MORELOS - CUERNAVACA (MEXICO)        *
 * (4) UNIVERSITE' DE LORRAINE - NANCY (FRANCE)                                *
 * (5) UNIVERSITAET STUTTGART- STUTTGART (GERMANY)                             *
 * (6) IMPERIAL COLLEGE - LONDON (UK)                                          *
 * (7) OXFORD E-RESEARCH CENTRE - OXFORD (UK)                                  *
 * (8) UPMC - SORBONNE UNIVERSITES - PARIS (FRANCE)                            *
 * (9) UNIVERSIDAD DE BARCELONA - BARCELONA (SPAIN)                            *
 *(10) UNIVERSITA' DI NAPOLI "FEDERICO II" - NAPOLI (ITALY)                    *
 *(11) NIS - NANOSTRUCTURED INTERFACES AND SURFACES - TORINO (ITALY)           *
 *(12) MPI FUER CHEMISCHE ENERGIEKONVERSION - MUELHEIM AN DER RUHR (GERMANY)   *
 *(13) UNIVERSITY OF TROMSO - TROMSO (NORWAY)                                  *
 *(14) UNIVERSITE' DE PAU ET DES PAYS DE L'ADOUR - PAU (FRANCE)                *
 *(15) UNIVERSITY OF CALIFORNIA SANTA BARBARA - SANTA BARBARA (USA)            *
 *(16) CURTIN UNIVERSITY - PERTH (AUSTRALIA)                                   *
 *(17) UNIVERSITY COLLEGE LONDON - LONDON (UK)                                 *
 *(18) CAMBRIDGE UNIVERSITY - CAMBRIDGE (UK)                                   *
 *                                                                             *
 *******************************************************************************
 EEEEEEEEEE STARTING  DATE 24 03 2018 TIME 20:51:43.7
 Generated by CrystalWriter                                                      

 CRYSTAL CALCULATION
 (INPUT ACCORDING TO THE INTERNATIONAL TABLES FOR X-RAY CRYSTALLOGRAPHY)
 CRYSTAL FAMILY                       :  TETRAGONAL  
 CRYSTAL CLASS  (GROTH - 1921)        :  DITETRAGONAL DIPYRAMIDAL             

 SPACE GROUP (CENTROSYMMETRIC)        :  P 4/M M M       

 LATTICE PARAMETERS  (ANGSTROMS AND DEGREES) - CONVENTIONAL CELL
        A           B           C        ALPHA        BETA       GAMMA
     3.92785     3.92785     3.43380    90.00000    90.00000    90.00000


 NUMBER OF IRREDUCIBLE ATOMS IN THE CONVENTIONAL CELL:    4

 INPUT COORDINATES

 ATOM AT. N.              COORDINATES
   1 229     0.000000000000E+00  0.000000000000E+00  0.000000000000E+00
   2 208     0.000000000000E+00  5.000000000000E-01  0.000000000000E+00
   3 208     5.000000000000E-01  0.000000000000E+00  0.000000000000E+00
   4 238     5.000000000000E-01  5.000000000000E-01  5.000000000000E-01

 *******************************************************************************

 << INFORMATION >>: FROM NOW ON, ALL COORDINATES REFER TO THE PRIMITIVE CELL

 *******************************************************************************

 LATTICE PARAMETERS  (ANGSTROMS AND DEGREES) - PRIMITIVE CELL
       A          B          C        ALPHA      BETA     GAMMA        VOLUME
    3.92785    3.92785    3.43380    90.00000  90.00000  90.00000     52.976686

 INPUT LIST - ATOM N.   3 NOT IRREDUCIBLE

 COORDINATES OF THE EQUIVALENT ATOMS (FRACTIONAL UNITS)

 N. ATOM EQUIV AT. N.          X                  Y                  Z

   1   1   1  229 CU    0.00000000000E+00  0.00000000000E+00  0.00000000000E+00

   2   2   1  208 O     0.00000000000E+00 -5.00000000000E-01  0.00000000000E+00
   3   2   2  208 O     5.00000000000E-01  0.00000000000E+00  0.00000000000E+00


 NUMBER OF SYMMETRY OPERATORS         :   16
 *******************************************************************************
 * GEOMETRY EDITING - INPUT COORDINATES ARE GIVEN IN ANGSTROM         
 *******************************************************************************

 GEOMETRY NOW FULLY CONSISTENT WITH THE GROUP

 NO SYMMOPS WITH FINITE TRANSLATIONAL COMPONENT

 *******************************************************************************
 * SUPERCELL OPTION
 *******************************************************************************

 INFORMATION **** GEXPAD **** SUPERCELL VOLUME NEGATIVE ? - SIGN OF EXPANSION MATRIX REVERSED

        EXPANSION MATRIX OF PRIMITIVE CELL
 E1    -2.000    -2.000     0.000
 E2     2.000    -2.000     0.000
 E3     0.000     0.000     1.000

 NUMBER OF ATOMS PER SUPERCELL    32

        DIRECT LATTICE VECTORS COMPONENTS (ANGSTROM)
 B1    -7.856    -7.856     0.000
 B2     7.856    -7.856     0.000
 B3     0.000     0.000     3.434

 LATTICE PARAMETERS  (ANGSTROM AND DEGREES)
       A          B          C         ALPHA     BETA     GAMMA        VOLUME
   11.10964   11.10964    3.43380    90.00000  90.00000  90.00000    423.813486


 **** ATOMS BELONGING TO THE SUPERCELL
 LABEL AT.NO.      COORDINATES (ANGSTROM AND FRACTIONAL)
     1   229     7.8557     0.0000     0.0000    -0.5000     0.5000     0.0000
     2   229     0.0000    -3.9278     0.0000     0.2500     0.2500     0.0000
     3   229     0.0000     0.0000     0.0000     0.0000     0.0000     0.0000
     4   229     0.0000     3.9278     0.0000    -0.2500    -0.2500     0.0000
     5   229    -3.9279     0.0000     0.0000     0.2500    -0.2500     0.0000
     6   229     3.9278    -3.9278     0.0000     0.0000     0.5000     0.0000
     7   229     3.9278     0.0000     0.0000    -0.2500     0.2500     0.0000
     8   229     3.9278     3.9278     0.0000    -0.5000     0.0000     0.0000
     9   208    -0.0000     5.8918     0.0000    -0.3750    -0.3750     0.0000
    10   208    -0.0000    -5.8918     0.0000     0.3750     0.3750     0.0000
    11   208     0.0000    -1.9639     0.0000     0.1250     0.1250     0.0000
    12   208     0.0000     1.9639     0.0000    -0.1250    -0.1250     0.0000
    13   208    -3.9279    -1.9639     0.0000     0.3750    -0.1250     0.0000
    14   208    -3.9279     1.9639     0.0000     0.1250    -0.3750     0.0000
    15   208     3.9278    -1.9639     0.0000    -0.1250     0.3750     0.0000
    16   208     3.9278     1.9639     0.0000    -0.3750     0.1250     0.0000
    17   208     5.8918     0.0000     0.0000    -0.3750     0.3750     0.0000
    18   208    -1.9639    -3.9278     0.0000     0.3750     0.1250     0.0000
    19   208    -1.9639     0.0000     0.0000     0.1250    -0.1250     0.0000
    20   208    -1.9639     3.9278     0.0000    -0.1250    -0.3750     0.0000
    21   208    -5.8918     0.0000     0.0000     0.3750    -0.3750     0.0000
    22   208     1.9639    -3.9278     0.0000     0.1250     0.3750     0.0000
    23   208     1.9639     0.0000     0.0000    -0.1250     0.1250     0.0000
    24   208     1.9639     3.9278     0.0000    -0.3750    -0.1250     0.0000
    25   238     5.8918    -1.9639     1.7169    -0.2500     0.5000     0.5000
    26   238     5.8918     1.9639     1.7169    -0.5000     0.2500     0.5000
    27   238    -1.9639    -1.9639     1.7169     0.2500     0.0000     0.5000
    28   238    -1.9639     1.9639     1.7169     0.0000    -0.2500     0.5000
    29   238     1.9639     5.8918     1.7169    -0.5000    -0.2500     0.5000
    30   238     1.9639    -5.8918     1.7169     0.2500     0.5000     0.5000
    31   238     1.9639    -1.9639     1.7169     0.0000     0.2500     0.5000
    32   238     1.9639     1.9639     1.7169    -0.2500     0.0000     0.5000

 **************************** SUPERCELL GENERATED ****************************
 *********************************************************************
                        ATOMIC SITE SYMMETRIES
 *********************************************************************


 ATOM   1 ATOMIC NUMBER 229 - NUMBER OF SYMMOPS WHICH DO NOT MOVE THE ATOM  16
 SEQUENCE NUMBERS OF THE SYMMOPS
    1    2    3    4    5    6    7    8    9   10   11   12   13   14   15
   16
 NO EQUIVALENT ATOMS


 ATOM   2 ATOMIC NUMBER 229 - NUMBER OF SYMMOPS WHICH DO NOT MOVE THE ATOM   4
 SEQUENCE NUMBERS OF THE SYMMOPS
    1    4   10   11
 NUMBER OF ATOMS EQUIVALENT BY SYMMETRY    3
 SEQUENCE NUMBERS OF THESE ATOMS
    4    7    5
 SEQUENCE NUMBERS OF THE CORRESPONDING SYMMOPS
    2    5    6


 ATOM   3 ATOMIC NUMBER 229 - NUMBER OF SYMMOPS WHICH DO NOT MOVE THE ATOM  16
 SEQUENCE NUMBERS OF THE SYMMOPS
    1    2    3    4    5    6    7    8    9   10   11   12   13   14   15
   16
 NO EQUIVALENT ATOMS


 ATOM   4 ATOMIC NUMBER 229 - NUMBER OF SYMMOPS WHICH DO NOT MOVE THE ATOM   4
 SEQUENCE NUMBERS OF THE SYMMOPS
    1    4   10   11
 NUMBER OF ATOMS EQUIVALENT BY SYMMETRY    3
 SEQUENCE NUMBERS OF THESE ATOMS
    2    5    7
 SEQUENCE NUMBERS OF THE CORRESPONDING SYMMOPS
    2    5    6


 ATOM   5 ATOMIC NUMBER 229 - NUMBER OF SYMMOPS WHICH DO NOT MOVE THE ATOM   4
 SEQUENCE NUMBERS OF THE SYMMOPS
    1    3   10   12
 NUMBER OF ATOMS EQUIVALENT BY SYMMETRY    3
 SEQUENCE NUMBERS OF THESE ATOMS
    7    4    2
 SEQUENCE NUMBERS OF THE CORRESPONDING SYMMOPS
    2    5    6


 ATOM   6 ATOMIC NUMBER 229 - NUMBER OF SYMMOPS WHICH DO NOT MOVE THE ATOM   8
 SEQUENCE NUMBERS OF THE SYMMOPS
    1    2    5    6    9   10   13   14
 NUMBER OF ATOMS EQUIVALENT BY SYMMETRY    1
 SEQUENCE NUMBERS OF THESE ATOMS
    8
 SEQUENCE NUMBERS OF THE CORRESPONDING SYMMOPS
    3


 ATOM   7 ATOMIC NUMBER 229 - NUMBER OF SYMMOPS WHICH DO NOT MOVE THE ATOM   4
 SEQUENCE NUMBERS OF THE SYMMOPS
    1    3   10   12
 NUMBER OF ATOMS EQUIVALENT BY SYMMETRY    3
 SEQUENCE NUMBERS OF THESE ATOMS
    5    2    4
 SEQUENCE NUMBERS OF THE CORRESPONDING SYMMOPS
    2    5    6


 ATOM   8 ATOMIC NUMBER 229 - NUMBER OF SYMMOPS WHICH DO NOT MOVE THE ATOM   8
 SEQUENCE NUMBERS OF THE SYMMOPS
    1    2    5    6    9   10   13   14
 NUMBER OF ATOMS EQUIVALENT BY SYMMETRY    1
 SEQUENCE NUMBERS OF THESE ATOMS
    6
 SEQUENCE NUMBERS OF THE CORRESPONDING SYMMOPS
    3


 ATOM   9 ATOMIC NUMBER 208 - NUMBER OF SYMMOPS WHICH DO NOT MOVE THE ATOM   4
 SEQUENCE NUMBERS OF THE SYMMOPS
    1    4   10   11
 NUMBER OF ATOMS EQUIVALENT BY SYMMETRY    3
 SEQUENCE NUMBERS OF THESE ATOMS
   10   21   17
 SEQUENCE NUMBERS OF THE CORRESPONDING SYMMOPS
    2    5    6


 ATOM  10 ATOMIC NUMBER 208 - NUMBER OF SYMMOPS WHICH DO NOT MOVE THE ATOM   4
 SEQUENCE NUMBERS OF THE SYMMOPS
    1    4   10   11
 NUMBER OF ATOMS EQUIVALENT BY SYMMETRY    3
 SEQUENCE NUMBERS OF THESE ATOMS
    9   17   21
 SEQUENCE NUMBERS OF THE CORRESPONDING SYMMOPS
    2    5    6


 ATOM  11 ATOMIC NUMBER 208 - NUMBER OF SYMMOPS WHICH DO NOT MOVE THE ATOM   4
 SEQUENCE NUMBERS OF THE SYMMOPS
    1    4   10   11
 NUMBER OF ATOMS EQUIVALENT BY SYMMETRY    3
 SEQUENCE NUMBERS OF THESE ATOMS
   12   23   19
 SEQUENCE NUMBERS OF THE CORRESPONDING SYMMOPS
    2    5    6


 ATOM  12 ATOMIC NUMBER 208 - NUMBER OF SYMMOPS WHICH DO NOT MOVE THE ATOM   4
 SEQUENCE NUMBERS OF THE SYMMOPS
    1    4   10   11
 NUMBER OF ATOMS EQUIVALENT BY SYMMETRY    3
 SEQUENCE NUMBERS OF THESE ATOMS
   11   19   23
 SEQUENCE NUMBERS OF THE CORRESPONDING SYMMOPS
    2    5    6


 ATOM  13 ATOMIC NUMBER 208 - NUMBER OF SYMMOPS WHICH DO NOT MOVE THE ATOM   2
 SEQUENCE NUMBERS OF THE SYMMOPS
    1   10
 NUMBER OF ATOMS EQUIVALENT BY SYMMETRY    7
 SEQUENCE NUMBERS OF THESE ATOMS
   16   14   15   24   18   20   22
 SEQUENCE NUMBERS OF THE CORRESPONDING SYMMOPS
    2    3    4    5    6    7    8


 ATOM  14 ATOMIC NUMBER 208 - NUMBER OF SYMMOPS WHICH DO NOT MOVE THE ATOM   2
 SEQUENCE NUMBERS OF THE SYMMOPS
    1   10
 NUMBER OF ATOMS EQUIVALENT BY SYMMETRY    7
 SEQUENCE NUMBERS OF THESE ATOMS
   15   13   16   20   22   24   18
 SEQUENCE NUMBERS OF THE CORRESPONDING SYMMOPS
    2    3    4    5    6    7    8


 ATOM  15 ATOMIC NUMBER 208 - NUMBER OF SYMMOPS WHICH DO NOT MOVE THE ATOM   2
 SEQUENCE NUMBERS OF THE SYMMOPS
    1   10
 NUMBER OF ATOMS EQUIVALENT BY SYMMETRY    7
 SEQUENCE NUMBERS OF THESE ATOMS
   14   16   13   22   20   18   24
 SEQUENCE NUMBERS OF THE CORRESPONDING SYMMOPS
    2    3    4    5    6    7    8


 ATOM  16 ATOMIC NUMBER 208 - NUMBER OF SYMMOPS WHICH DO NOT MOVE THE ATOM   2
 SEQUENCE NUMBERS OF THE SYMMOPS
    1   10
 NUMBER OF ATOMS EQUIVALENT BY SYMMETRY    7
 SEQUENCE NUMBERS OF THESE ATOMS
   13   15   14   18   24   22   20
 SEQUENCE NUMBERS OF THE CORRESPONDING SYMMOPS
    2    3    4    5    6    7    8


 ATOM  17 ATOMIC NUMBER 208 - NUMBER OF SYMMOPS WHICH DO NOT MOVE THE ATOM   4
 SEQUENCE NUMBERS OF THE SYMMOPS
    1    3   10   12
 NUMBER OF ATOMS EQUIVALENT BY SYMMETRY    3
 SEQUENCE NUMBERS OF THESE ATOMS
   21   10    9
 SEQUENCE NUMBERS OF THE CORRESPONDING SYMMOPS
    2    5    6


 ATOM  18 ATOMIC NUMBER 208 - NUMBER OF SYMMOPS WHICH DO NOT MOVE THE ATOM   2
 SEQUENCE NUMBERS OF THE SYMMOPS
    1   10
 NUMBER OF ATOMS EQUIVALENT BY SYMMETRY    7
 SEQUENCE NUMBERS OF THESE ATOMS
   24   20   22   16   13   14   15
 SEQUENCE NUMBERS OF THE CORRESPONDING SYMMOPS
    2    3    4    5    6    7    8


 ATOM  19 ATOMIC NUMBER 208 - NUMBER OF SYMMOPS WHICH DO NOT MOVE THE ATOM   4
 SEQUENCE NUMBERS OF THE SYMMOPS
    1    3   10   12
 NUMBER OF ATOMS EQUIVALENT BY SYMMETRY    3
 SEQUENCE NUMBERS OF THESE ATOMS
   23   12   11
 SEQUENCE NUMBERS OF THE CORRESPONDING SYMMOPS
    2    5    6


 ATOM  20 ATOMIC NUMBER 208 - NUMBER OF SYMMOPS WHICH DO NOT MOVE THE ATOM   2
 SEQUENCE NUMBERS OF THE SYMMOPS
    1   10
 NUMBER OF ATOMS EQUIVALENT BY SYMMETRY    7
 SEQUENCE NUMBERS OF THESE ATOMS
   22   18   24   14   15   16   13
 SEQUENCE NUMBERS OF THE CORRESPONDING SYMMOPS
    2    3    4    5    6    7    8


 ATOM  21 ATOMIC NUMBER 208 - NUMBER OF SYMMOPS WHICH DO NOT MOVE THE ATOM   4
 SEQUENCE NUMBERS OF THE SYMMOPS
    1    3   10   12
 NUMBER OF ATOMS EQUIVALENT BY SYMMETRY    3
 SEQUENCE NUMBERS OF THESE ATOMS
   17    9   10
 SEQUENCE NUMBERS OF THE CORRESPONDING SYMMOPS
    2    5    6


 ATOM  22 ATOMIC NUMBER 208 - NUMBER OF SYMMOPS WHICH DO NOT MOVE THE ATOM   2
 SEQUENCE NUMBERS OF THE SYMMOPS
    1   10
 NUMBER OF ATOMS EQUIVALENT BY SYMMETRY    7
 SEQUENCE NUMBERS OF THESE ATOMS
   20   24   18   15   14   13   16
 SEQUENCE NUMBERS OF THE CORRESPONDING SYMMOPS
    2    3    4    5    6    7    8


 ATOM  23 ATOMIC NUMBER 208 - NUMBER OF SYMMOPS WHICH DO NOT MOVE THE ATOM   4
 SEQUENCE NUMBERS OF THE SYMMOPS
    1    3   10   12
 NUMBER OF ATOMS EQUIVALENT BY SYMMETRY    3
 SEQUENCE NUMBERS OF THESE ATOMS
   19   11   12
 SEQUENCE NUMBERS OF THE CORRESPONDING SYMMOPS
    2    5    6


 ATOM  24 ATOMIC NUMBER 208 - NUMBER OF SYMMOPS WHICH DO NOT MOVE THE ATOM   2
 SEQUENCE NUMBERS OF THE SYMMOPS
    1   10
 NUMBER OF ATOMS EQUIVALENT BY SYMMETRY    7
 SEQUENCE NUMBERS OF THESE ATOMS
   18   22   20   13   16   15   14
 SEQUENCE NUMBERS OF THE CORRESPONDING SYMMOPS
    2    3    4    5    6    7    8


 ATOM  25 ATOMIC NUMBER 238 - NUMBER OF SYMMOPS WHICH DO NOT MOVE THE ATOM   4
 SEQUENCE NUMBERS OF THE SYMMOPS
    1    6   10   13
 NUMBER OF ATOMS EQUIVALENT BY SYMMETRY    3
 SEQUENCE NUMBERS OF THESE ATOMS
   30   26   29
 SEQUENCE NUMBERS OF THE CORRESPONDING SYMMOPS
    2    3    4


 ATOM  26 ATOMIC NUMBER 238 - NUMBER OF SYMMOPS WHICH DO NOT MOVE THE ATOM   4
 SEQUENCE NUMBERS OF THE SYMMOPS
    1    5   10   14
 NUMBER OF ATOMS EQUIVALENT BY SYMMETRY    3
 SEQUENCE NUMBERS OF THESE ATOMS
   29   25   30
 SEQUENCE NUMBERS OF THE CORRESPONDING SYMMOPS
    2    3    4


 ATOM  27 ATOMIC NUMBER 238 - NUMBER OF SYMMOPS WHICH DO NOT MOVE THE ATOM   4
 SEQUENCE NUMBERS OF THE SYMMOPS
    1    6   10   13
 NUMBER OF ATOMS EQUIVALENT BY SYMMETRY    3
 SEQUENCE NUMBERS OF THESE ATOMS
   32   28   31
 SEQUENCE NUMBERS OF THE CORRESPONDING SYMMOPS
    2    3    4


 ATOM  28 ATOMIC NUMBER 238 - NUMBER OF SYMMOPS WHICH DO NOT MOVE THE ATOM   4
 SEQUENCE NUMBERS OF THE SYMMOPS
    1    5   10   14
 NUMBER OF ATOMS EQUIVALENT BY SYMMETRY    3
 SEQUENCE NUMBERS OF THESE ATOMS
   31   27   32
 SEQUENCE NUMBERS OF THE CORRESPONDING SYMMOPS
    2    3    4


 ATOM  29 ATOMIC NUMBER 238 - NUMBER OF SYMMOPS WHICH DO NOT MOVE THE ATOM   4
 SEQUENCE NUMBERS OF THE SYMMOPS
    1    5   10   14
 NUMBER OF ATOMS EQUIVALENT BY SYMMETRY    3
 SEQUENCE NUMBERS OF THESE ATOMS
   26   30   25
 SEQUENCE NUMBERS OF THE CORRESPONDING SYMMOPS
    2    3    4


 ATOM  30 ATOMIC NUMBER 238 - NUMBER OF SYMMOPS WHICH DO NOT MOVE THE ATOM   4
 SEQUENCE NUMBERS OF THE SYMMOPS
    1    6   10   13
 NUMBER OF ATOMS EQUIVALENT BY SYMMETRY    3
 SEQUENCE NUMBERS OF THESE ATOMS
   25   29   26
 SEQUENCE NUMBERS OF THE CORRESPONDING SYMMOPS
    2    3    4


 ATOM  31 ATOMIC NUMBER 238 - NUMBER OF SYMMOPS WHICH DO NOT MOVE THE ATOM   4
 SEQUENCE NUMBERS OF THE SYMMOPS
    1    5   10   14
 NUMBER OF ATOMS EQUIVALENT BY SYMMETRY    3
 SEQUENCE NUMBERS OF THESE ATOMS
   28   32   27
 SEQUENCE NUMBERS OF THE CORRESPONDING SYMMOPS
    2    3    4


 ATOM  32 ATOMIC NUMBER 238 - NUMBER OF SYMMOPS WHICH DO NOT MOVE THE ATOM   4
 SEQUENCE NUMBERS OF THE SYMMOPS
    1    6   10   13
 NUMBER OF ATOMS EQUIVALENT BY SYMMETRY    3
 SEQUENCE NUMBERS OF THESE ATOMS
   27   31   28
 SEQUENCE NUMBERS OF THE CORRESPONDING SYMMOPS
    2    3    4

 *****   16 SYMMOPS - TRANSLATORS IN ANGSTROM
 ***** MATRICES AND TRANSLATORS IN THE CARTESIAN REFERENCE FRAME

 ORDER   : ORDER OF THE OPERATOR

 TRANSLA : REAL TRANSLATION (WITHOUT ORIGIN SHIFT) IN CARTESIAN COORDINATES

 uvw/hkl : ORIENTATION OF THE OPERATOR IN CARTESIAN COORDINATES

 LOCATED : ORIGIN OF THE OPERATOR IN CARTESIAN COORDINATES

   NO.   1 INVERSE   1    ORDER   1        NO.   2 INVERSE   2    ORDER   2
    1.000   0.000   0.000     0.000        -1.000   0.000   0.000     0.000
    0.000   1.000   0.000     0.000         0.000  -1.000   0.000     0.000
    0.000   0.000   1.000     0.000         0.000   0.000   1.000     0.000
             OPERATION E(   1)                       OPERATION C(   2)
 DETERMINANT 1.; ROTATION(DEG)   0.      DETERMINANT 1.; ROTATION(DEG) 180.
 TRANSLA (  0.000    0.000    0.000)     TRANSLA (  0.000    0.000    0.000)
 uvw/hkl (  0.000    0.000    0.000)     uvw/hkl (  0.000    0.000    4.000)
 LOCATED (  0.000    0.000    0.000)     LOCATED (  0.000    0.000    0.000)

   NO.   3 INVERSE   3    ORDER   2        NO.   4 INVERSE   4    ORDER   2
    1.000   0.000   0.000     0.000        -1.000   0.000   0.000     0.000
    0.000  -1.000   0.000     0.000         0.000   1.000   0.000     0.000
    0.000   0.000  -1.000     0.000         0.000   0.000  -1.000     0.000
             OPERATION C(   2)                       OPERATION C(   2)
 DETERMINANT 1.; ROTATION(DEG) 180.      DETERMINANT 1.; ROTATION(DEG) 180.
 TRANSLA (  0.000    0.000    0.000)     TRANSLA (  0.000    0.000    0.000)
 uvw/hkl (  4.000    0.000    0.000)     uvw/hkl (  0.000   -4.000    0.000)
 LOCATED (  0.000    0.000    0.000)     LOCATED (  0.000    0.000    0.000)

   NO.   5 INVERSE   5    ORDER   2        NO.   6 INVERSE   6    ORDER   2
    0.000  -1.000   0.000     0.000         0.000   1.000   0.000     0.000
   -1.000   0.000   0.000     0.000         1.000   0.000   0.000     0.000
    0.000   0.000  -1.000     0.000         0.000   0.000  -1.000     0.000
             OPERATION C(   2)                       OPERATION C(   2)
 DETERMINANT 1.; ROTATION(DEG) 180.      DETERMINANT 1.; ROTATION(DEG) 180.
 TRANSLA (  0.000    0.000    0.000)     TRANSLA (  0.000    0.000    0.000)
 uvw/hkl (  2.000   -2.000    0.000)     uvw/hkl ( -2.000   -2.000    0.000)
 LOCATED (  0.000    0.000    0.000)     LOCATED (  0.000    0.000    0.000)

   NO.   7 INVERSE   8    ORDER   4        NO.   8 INVERSE   7    ORDER   4
    0.000   1.000   0.000     0.000         0.000  -1.000   0.000     0.000
   -1.000   0.000   0.000     0.000         1.000   0.000   0.000     0.000
    0.000   0.000   1.000     0.000         0.000   0.000   1.000     0.000
             OPERATION C(   4)                       OPERATION C(   4)
 DETERMINANT 1.; ROTATION(DEG)  90.      DETERMINANT 1.; ROTATION(DEG)  90.
 TRANSLA (  0.000    0.000    0.000)     TRANSLA (  0.000    0.000    0.000)
 uvw/hkl (  0.000    0.000    2.000)     uvw/hkl (  0.000    0.000    2.000)
 LOCATED (  0.000    0.000    0.000)     LOCATED (  0.000    0.000    0.000)

   NO.   9 INVERSE   9    ORDER   2        NO.  10 INVERSE  10    ORDER   2
   -1.000   0.000   0.000     0.000         1.000   0.000   0.000     0.000
    0.000  -1.000   0.000     0.000         0.000   1.000   0.000     0.000
    0.000   0.000  -1.000     0.000         0.000   0.000  -1.000     0.000
             OPERATION I(   2)                       OPERATION M(   2)
 DETERMINANT-1.; ROTATION(DEG) 180.      DETERMINANT-1.; ROTATION(DEG)   0.
 TRANSLA (  0.000    0.000    0.000)     TRANSLA (  0.000    0.000    0.000)
 uvw/hkl (  0.000    0.000    0.000)     uvw/hkl (  0.000    0.000   -2.000)
 LOCATED (  0.000    0.000    0.000)     LOCATED (  0.000    0.000    0.000)

   NO.  11 INVERSE  11    ORDER   2        NO.  12 INVERSE  12    ORDER   2
   -1.000   0.000   0.000     0.000         1.000   0.000   0.000     0.000
    0.000   1.000   0.000     0.000         0.000  -1.000   0.000     0.000
    0.000   0.000   1.000     0.000         0.000   0.000   1.000     0.000
             OPERATION M(   2)                       OPERATION M(   2)
 DETERMINANT-1.; ROTATION(DEG)   0.      DETERMINANT-1.; ROTATION(DEG)   0.
 TRANSLA (  0.000    0.000    0.000)     TRANSLA (  0.000    0.000    0.000)
 uvw/hkl (  2.000    0.000    0.000)     uvw/hkl (  0.000   -2.000    0.000)
 LOCATED (  0.000    0.000    0.000)     LOCATED (  0.000    0.000    0.000)

   NO.  13 INVERSE  13    ORDER   2        NO.  14 INVERSE  14    ORDER   2
    0.000   1.000   0.000     0.000         0.000  -1.000   0.000     0.000
    1.000   0.000   0.000     0.000        -1.000   0.000   0.000     0.000
    0.000   0.000   1.000     0.000         0.000   0.000   1.000     0.000
             OPERATION M(   2)                       OPERATION M(   2)
 DETERMINANT-1.; ROTATION(DEG)   0.      DETERMINANT-1.; ROTATION(DEG)   0.
 TRANSLA (  0.000    0.000    0.000)     TRANSLA (  0.000    0.000    0.000)
 uvw/hkl (  1.000   -1.000    0.000)     uvw/hkl (  1.000    1.000    0.000)
 LOCATED (  0.000    0.000    0.000)     LOCATED (  0.000    0.000    0.000)

   NO.  15 INVERSE  16    ORDER   4        NO.  16 INVERSE  15    ORDER   4
    0.000  -1.000   0.000     0.000         0.000   1.000   0.000     0.000
    1.000   0.000   0.000     0.000        -1.000   0.000   0.000     0.000
    0.000   0.000  -1.000     0.000         0.000   0.000  -1.000     0.000
             OPERATION S(   4)                       OPERATION S(   4)
 DETERMINANT-1.; ROTATION(DEG)  90.      DETERMINANT-1.; ROTATION(DEG)  90.
 TRANSLA (  0.000    0.000    0.000)     TRANSLA (  0.000    0.000    0.000)
 uvw/hkl (  0.000    0.000    2.000)     uvw/hkl (  0.000    0.000    2.000)
 LOCATED (  0.000    0.000    0.000)     LOCATED (  0.000    0.000    0.000)
 SSSSSSSSSSSSSSSSSSSSSSSSSSSSSSSSSSSSSSSSSSSSSSSSSSSSSSSSSSSSSSSSSSSSSSSSSSSSSS
 REDUCTION OF SYMMETRY - ATOMIC LABELS SET TO (ATOM, AT. N., LABEL)
   1(229) 1;   2(229) 2;   3(229) 1;   4(229) 2;   5(229) 2;   6(229) 1;
   7(229) 2;   8(229) 1;   9(208) 0;  10(208) 0;  11(208) 0;  12(208) 0;
  13(208) 0;  14(208) 0;  15(208) 0;  16(208) 0;  17(208) 0;  18(208) 0;
  19(208) 0;  20(208) 0;  21(208) 0;  22(208) 0;  23(208) 0;  24(208) 0;
  25(238) 0;  26(238) 0;  27(238) 0;  28(238) 0;  29(238) 0;  30(238) 0;
  31(238) 0;  32(238) 0;
 WARNING **** MODSYM **** GEOMETRICAL SYMMETRY NOT REDUCED

 GCALCO - MAX INDICES DIRECT LATTICE VECTOR     9     9    32
 NO.OF VECTORS CREATED 6999 STARS  569 RMAX   168.68580 BOHR

 GEOMETRY FOR WAVE FUNCTION - DIMENSIONALITY OF THE SYSTEM    3
 (NON PERIODIC DIRECTION: LATTICE PARAMETER FORMALLY SET TO 500)
 *******************************************************************************
 LATTICE PARAMETERS (ANGSTROMS AND DEGREES) - BOHR = 0.5291772083 ANGSTROM
 PRIMITIVE CELL - CENTRING CODE 1/0 VOLUME=   423.813486 - DENSITY  5.731 g/cm^3
         A              B              C           ALPHA      BETA       GAMMA 
    11.10963748    11.10963748     3.43380000    90.000000  90.000000  90.000000
 *******************************************************************************
 ATOMS IN THE ASYMMETRIC UNIT    9 - ATOMS IN THE UNIT CELL:   32
     ATOM                 X/A                 Y/B                 Z/C    
 *******************************************************************************
      1 T 229 CU   -5.000000000000E-01 -5.000000000000E-01  0.000000000000E+00
      2 T 229 CU    2.500000000000E-01  2.500000000000E-01  0.000000000000E+00
      3 T 229 CU    0.000000000000E+00  0.000000000000E+00  0.000000000000E+00
      4 F 229 CU   -2.500000000000E-01 -2.500000000000E-01  0.000000000000E+00
      5 F 229 CU    2.500000000000E-01 -2.500000000000E-01  0.000000000000E+00
      6 T 229 CU    0.000000000000E+00 -5.000000000000E-01  0.000000000000E+00
      7 F 229 CU   -2.500000000000E-01  2.500000000000E-01  0.000000000000E+00
      8 F 229 CU   -5.000000000000E-01  0.000000000000E+00  0.000000000000E+00
      9 T 208 O    -3.750000000000E-01 -3.750000000000E-01  0.000000000000E+00
     10 F 208 O     3.750000000000E-01  3.750000000000E-01  0.000000000000E+00
     11 T 208 O     1.250000000000E-01  1.250000000000E-01  0.000000000000E+00
     12 F 208 O    -1.250000000000E-01 -1.250000000000E-01  0.000000000000E+00
     13 T 208 O     3.750000000000E-01 -1.250000000000E-01  0.000000000000E+00
     14 F 208 O     1.250000000000E-01 -3.750000000000E-01  0.000000000000E+00
     15 F 208 O    -1.250000000000E-01  3.750000000000E-01  0.000000000000E+00
     16 F 208 O    -3.750000000000E-01  1.250000000000E-01  0.000000000000E+00
     17 F 208 O    -3.750000000000E-01  3.750000000000E-01  0.000000000000E+00
     18 F 208 O     3.750000000000E-01  1.250000000000E-01  0.000000000000E+00
     19 F 208 O     1.250000000000E-01 -1.250000000000E-01  0.000000000000E+00
     20 F 208 O    -1.250000000000E-01 -3.750000000000E-01  0.000000000000E+00
     21 F 208 O     3.750000000000E-01 -3.750000000000E-01  0.000000000000E+00
     22 F 208 O     1.250000000000E-01  3.750000000000E-01  0.000000000000E+00
     23 F 208 O    -1.250000000000E-01  1.250000000000E-01  0.000000000000E+00
     24 F 208 O    -3.750000000000E-01 -1.250000000000E-01  0.000000000000E+00
     25 T 238 SR   -2.500000000000E-01 -5.000000000000E-01  5.000000000000E-01
     26 F 238 SR   -5.000000000000E-01  2.500000000000E-01  5.000000000000E-01
     27 T 238 SR    2.500000000000E-01  0.000000000000E+00  5.000000000000E-01
     28 F 238 SR    0.000000000000E+00 -2.500000000000E-01  5.000000000000E-01
     29 F 238 SR   -5.000000000000E-01 -2.500000000000E-01  5.000000000000E-01
     30 F 238 SR    2.500000000000E-01 -5.000000000000E-01  5.000000000000E-01
     31 F 238 SR    0.000000000000E+00  2.500000000000E-01  5.000000000000E-01
     32 F 238 SR   -2.500000000000E-01  0.000000000000E+00  5.000000000000E-01

 T = ATOM BELONGING TO THE ASYMMETRIC UNIT

 ****   16 SYMMOPS - TRANSLATORS IN FRACTIONAL UNITS
 **** MATRICES AND TRANSLATORS IN THE CRYSTALLOGRAPHIC REFERENCE FRAME
   V INV                    ROTATION MATRICES                   TRANSLATORS
   1   1  1.00  0.00  0.00  0.00  1.00  0.00  0.00  0.00  1.00  0.00  0.00  0.00
   2   2 -1.00  0.00  0.00  0.00 -1.00  0.00  0.00  0.00  1.00  0.00  0.00  0.00
   3   3  0.00 -1.00  0.00 -1.00  0.00  0.00  0.00  0.00 -1.00  0.00  0.00  0.00
   4   4 -0.00  1.00  0.00  1.00 -0.00  0.00  0.00  0.00 -1.00  0.00  0.00  0.00
   5   5 -1.00  0.00  0.00 -0.00  1.00  0.00  0.00  0.00 -1.00  0.00  0.00  0.00
   6   6  1.00 -0.00  0.00  0.00 -1.00  0.00  0.00  0.00 -1.00  0.00  0.00  0.00
   7   8 -0.00  1.00  0.00 -1.00  0.00  0.00  0.00  0.00  1.00  0.00  0.00  0.00
   8   7  0.00 -1.00  0.00  1.00 -0.00  0.00  0.00  0.00  1.00  0.00  0.00  0.00
   9   9 -1.00  0.00  0.00  0.00 -1.00  0.00  0.00  0.00 -1.00  0.00  0.00  0.00
  10  10  1.00 -0.00  0.00 -0.00  1.00  0.00  0.00  0.00 -1.00  0.00  0.00  0.00
  11  11 -0.00  1.00  0.00  1.00 -0.00  0.00  0.00  0.00  1.00  0.00  0.00  0.00
  12  12  0.00 -1.00  0.00 -1.00  0.00  0.00  0.00  0.00  1.00  0.00  0.00  0.00
  13  13  1.00 -0.00  0.00  0.00 -1.00  0.00  0.00  0.00  1.00  0.00  0.00  0.00
  14  14 -1.00  0.00  0.00 -0.00  1.00  0.00  0.00  0.00  1.00  0.00  0.00  0.00
  15  16  0.00 -1.00  0.00  1.00 -0.00  0.00  0.00  0.00 -1.00  0.00  0.00  0.00
  16  15 -0.00  1.00  0.00 -1.00  0.00  0.00  0.00  0.00 -1.00  0.00  0.00  0.00

 DIRECT LATTICE VECTORS CARTESIAN COMPONENTS (ANGSTROM)
          X                    Y                    Z
  -0.785570000000E+01  -0.785570000000E+01   0.000000000000E+00
   0.785570000000E+01  -0.785570000000E+01   0.000000000000E+00
   0.000000000000E+00   0.000000000000E+00   0.343380000000E+01


 CARTESIAN COORDINATES - PRIMITIVE CELL
 *******************************************************************************
 *      ATOM          X(ANGSTROM)         Y(ANGSTROM)         Z(ANGSTROM)
 *******************************************************************************
    1   229 CU    0.000000000000E+00 -7.855700000000E+00  0.000000000000E+00
    2   229 CU    0.000000000000E+00 -3.927850000000E+00  0.000000000000E+00
    3   229 CU    0.000000000000E+00  0.000000000000E+00  0.000000000000E+00
    4   229 CU    4.700037766092E-16  3.927850000000E+00  0.000000000000E+00
    5   229 CU   -3.927850000000E+00  1.645013218132E-15  0.000000000000E+00
    6   229 CU    3.927850000000E+00 -3.927850000000E+00  0.000000000000E+00
    7   229 CU    3.927850000000E+00  4.700037766092E-16  0.000000000000E+00
    8   229 CU   -3.927850000000E+00 -3.927850000000E+00  0.000000000000E+00
    9   208 O    -9.400075532184E-16  5.891775000000E+00  0.000000000000E+00
   10   208 O    -9.400075532184E-16 -5.891775000000E+00  0.000000000000E+00
   11   208 O     0.000000000000E+00 -1.963925000000E+00  0.000000000000E+00
   12   208 O     4.700037766092E-16  1.963925000000E+00  0.000000000000E+00
   13   208 O    -3.927850000000E+00 -1.963925000000E+00  0.000000000000E+00
   14   208 O    -3.927850000000E+00  1.963925000000E+00  0.000000000000E+00
   15   208 O     3.927850000000E+00 -1.963925000000E+00  0.000000000000E+00
   16   208 O     3.927850000000E+00  1.963925000000E+00  0.000000000000E+00
   17   208 O     5.891775000000E+00  9.400075532184E-16  0.000000000000E+00
   18   208 O    -1.963925000000E+00 -3.927850000000E+00  0.000000000000E+00
   19   208 O    -1.963925000000E+00  0.000000000000E+00  0.000000000000E+00
   20   208 O    -1.963925000000E+00  3.927850000000E+00  0.000000000000E+00
   21   208 O    -5.891775000000E+00  1.880015106437E-15  0.000000000000E+00
   22   208 O     1.963925000000E+00 -3.927850000000E+00  0.000000000000E+00
   23   208 O     1.963925000000E+00  4.700037766092E-16  0.000000000000E+00
   24   208 O     1.963925000000E+00  3.927850000000E+00  0.000000000000E+00
   25   238 SR    5.891775000000E+00 -1.963925000000E+00  1.716900000000E+00
   26   238 SR   -1.963925000000E+00 -5.891775000000E+00  1.716900000000E+00
   27   238 SR   -1.963925000000E+00 -1.963925000000E+00  1.716900000000E+00
   28   238 SR   -1.963925000000E+00  1.963925000000E+00  1.716900000000E+00
   29   238 SR   -5.891775000000E+00 -1.963925000000E+00  1.716900000000E+00
   30   238 SR    1.963925000000E+00 -5.891775000000E+00  1.716900000000E+00
   31   238 SR    1.963925000000E+00 -1.963925000000E+00  1.716900000000E+00
   32   238 SR    1.963925000000E+00  1.963925000000E+00  1.716900000000E+00

 *******************************************************************************
 *** PSEUDOPOTENTIAL INFORMATION ***
 *******************************************************************************

 ATOMIC NUMBER  29, NUCLEAR CHARGE 19.000, GIVEN IN INPUT       PSEUDOPOTENTIAL
   TYPE       EXPONENT      COEFF.    N      EXPONENT      COEFF.    N
  W0 TMS     6.2514963   19.0000000  -1     6.7272533  118.7784294   1
             6.6102459 -105.8998240   0
  P0 TMS    12.3656871  127.3506942   0
  P1 TMS    11.1607294   71.2298490   0

 ATOMIC NUMBER   8, NUCLEAR CHARGE  6.000, GIVEN IN INPUT       PSEUDOPOTENTIAL
   TYPE       EXPONENT      COEFF.    N      EXPONENT      COEFF.    N
  W0 TMS     9.2979390    6.0000000  -1     8.8649220   55.7876342   1
             8.6292567  -38.8197850   0
  P0 TMS     8.7192445   38.4191413   0

 ATOMIC NUMBER  38, NUCLEAR CHARGE  2.000, GIVEN IN INPUT       PSEUDOPOTENTIAL
   TYPE       EXPONENT      COEFF.    N      EXPONENT      COEFF.    N
  W0 TMS     4.3839388    2.0000000  -1     3.1964983    8.7678775   1
             0.9899150  -14.2552431   0
  P0 TMS     1.2868349  146.8716052   0
  P1 TMS     0.9567448  140.0262284   0
  P2 TMS     1.9483165   24.4454878   0

 *******************************************************************************
 LOCAL ATOMIC FUNCTIONS BASIS SET
 *******************************************************************************
   ATOM   X(AU)   Y(AU)   Z(AU)  N. TYPE  EXPONENT  S COEF   P COEF   D/F/G COEF
 *******************************************************************************
   1 CU   0.000 -14.845   0.000
                                  1 S  
                                         2.785E+01-1.934E-02 0.000E+00 0.000E+00
                                         2.142E+01 8.861E-02 0.000E+00 0.000E+00
                                         1.054E+01-3.559E-01 0.000E+00 0.000E+00
                                         2.536E+00 5.381E-01 0.000E+00 0.000E+00
                                         1.250E+00 5.111E-01 0.000E+00 0.000E+00
                                         5.998E-01 1.476E-01 0.000E+00 0.000E+00
                                  2 S  
                                         2.785E+01-2.653E-03 0.000E+00 0.000E+00
                                         2.142E+01-7.542E-03 0.000E+00 0.000E+00
                                         1.054E+01 7.976E-02 0.000E+00 0.000E+00
                                         2.536E+00-1.553E-01 0.000E+00 0.000E+00
                                         1.250E+00-2.531E-01 0.000E+00 0.000E+00
                                         5.998E-01-2.817E-02 0.000E+00 0.000E+00
                           3-     5 P  
                                         1.859E+01 0.000E+00 3.652E-03 0.000E+00
                                         1.430E+01 0.000E+00-3.708E-02 0.000E+00
                                         5.631E+00 0.000E+00 2.171E-01 0.000E+00
                                         2.683E+00 0.000E+00 4.410E-01 0.000E+00
                                         1.259E+00 0.000E+00 3.587E-01 0.000E+00
                                         5.741E-01 0.000E+00 1.148E-01 0.000E+00
                                         2.092E-01 0.000E+00 7.316E-03 0.000E+00
                           6-    10 D  
                                         1.579E+01 0.000E+00 0.000E+00 8.422E-02
                                         7.203E+00 0.000E+00 0.000E+00 2.554E-01
                                         2.974E+00 0.000E+00 0.000E+00 3.500E-01
                                         1.207E+00 0.000E+00 0.000E+00 3.417E-01
                                         4.640E-01 0.000E+00 0.000E+00 2.417E-01
                          11-    17 F  
                                         1.692E+00 0.000E+00 0.000E+00 1.000E+00
                                 18 S  
                                         2.000E-01 1.000E+00 0.000E+00 0.000E+00
                                 19 S  
                                         6.000E-01 1.000E+00 0.000E+00 0.000E+00
                          20-    22 P  
                                         2.000E-01 0.000E+00 1.000E+00 0.000E+00
                          23-    25 P  
                                         6.000E-01 0.000E+00 1.000E+00 0.000E+00
                          26-    30 D  
                                         2.000E-01 0.000E+00 0.000E+00 1.000E+00
                          31-    35 D  
                                         6.000E-01 0.000E+00 0.000E+00 1.000E+00
   2 CU   0.000  -7.423   0.000
   3 CU   0.000   0.000   0.000
   4 CU   0.000   7.423   0.000
   5 CU  -7.423   0.000   0.000
   6 CU   7.423  -7.423   0.000
   7 CU   7.423   0.000   0.000
   8 CU  -7.423  -7.423   0.000
   9 O   -0.000  11.134   0.000
                                281 S  
                                         2.680E-01 3.048E-01 0.000E+00 0.000E+00
                                         5.731E-01 4.538E-01 0.000E+00 0.000E+00
                                         1.225E+00 2.959E-01 0.000E+00 0.000E+00
                                         2.620E+00 1.957E-02 0.000E+00 0.000E+00
                                         5.603E+00-1.286E-01 0.000E+00 0.000E+00
                                         1.198E+01 1.202E-02 0.000E+00 0.000E+00
                                         2.562E+01 4.070E-04 0.000E+00 0.000E+00
                                         5.478E+01-7.600E-05 0.000E+00 0.000E+00
                         282-   284 P  
                                         3.337E-01 0.000E+00 2.560E-01 0.000E+00
                                         6.666E-01 0.000E+00 2.819E-01 0.000E+00
                                         1.332E+00 0.000E+00 2.428E-01 0.000E+00
                                         2.661E+00 0.000E+00 1.611E-01 0.000E+00
                                         5.316E+00 0.000E+00 8.231E-02 0.000E+00
                                         1.062E+01 0.000E+00 3.990E-02 0.000E+00
                                         2.122E+01 0.000E+00 4.679E-03 0.000E+00
                         285-   289 D  
                                         6.693E-01 0.000E+00 0.000E+00 1.000E+00
                         290-   296 F  
                                         1.423E+00 0.000E+00 0.000E+00 1.000E+00
                                297 S  
                                         2.000E-01 1.000E+00 0.000E+00 0.000E+00
                                298 S  
                                         6.000E-01 1.000E+00 0.000E+00 0.000E+00
                         299-   301 P  
                                         2.000E-01 0.000E+00 1.000E+00 0.000E+00
                         302-   304 P  
                                         6.000E-01 0.000E+00 1.000E+00 0.000E+00
  10 O   -0.000 -11.134   0.000
  11 O    0.000  -3.711   0.000
  12 O    0.000   3.711   0.000
  13 O   -7.423  -3.711   0.000
  14 O   -7.423   3.711   0.000
  15 O    7.423  -3.711   0.000
  16 O    7.423   3.711   0.000
  17 O   11.134   0.000   0.000
  18 O   -3.711  -7.423   0.000
  19 O   -3.711   0.000   0.000
  20 O   -3.711   7.423   0.000
  21 O  -11.134   0.000   0.000
  22 O    3.711  -7.423   0.000
  23 O    3.711   0.000   0.000
  24 O    3.711   7.423   0.000
  25 SR  11.134  -3.711   3.244
                                665 S  
                                         2.177E-01-9.389E-02 0.000E+00 0.000E+00
                                         4.871E-01-2.476E-01 0.000E+00 0.000E+00
                                         1.090E+00 1.601E-01 0.000E+00 0.000E+00
                                         2.439E+00-4.360E-02 0.000E+00 0.000E+00
                                         5.457E+00 8.684E-03 0.000E+00 0.000E+00
                                         1.221E+01-1.296E-03 0.000E+00 0.000E+00
                         666-   668 P  
                                         2.236E-01 0.000E+00-4.747E-02 0.000E+00
                                         4.507E-01 0.000E+00-1.710E-01 0.000E+00
                                         9.086E-01 0.000E+00 1.048E-01 0.000E+00
                                         1.831E+00 0.000E+00-2.952E-02 0.000E+00
                                         3.692E+00 0.000E+00 6.196E-03 0.000E+00
                                         7.442E+00 0.000E+00-9.550E-04 0.000E+00
                         669-   673 D  
                                         5.283E-01 0.000E+00 0.000E+00 1.000E+00
                                674 S  
                                         2.000E-01 1.000E+00 0.000E+00 0.000E+00
                                675 S  
                                         6.000E-01 1.000E+00 0.000E+00 0.000E+00
                         676-   678 P  
                                         2.000E-01 0.000E+00 1.000E+00 0.000E+00
                         679-   681 P  
                                         6.000E-01 0.000E+00 1.000E+00 0.000E+00
  26 SR  -3.711 -11.134   3.244
  27 SR  -3.711  -3.711   3.244
  28 SR  -3.711   3.711   3.244
  29 SR -11.134  -3.711   3.244
  30 SR   3.711 -11.134   3.244
  31 SR   3.711  -3.711   3.244
  32 SR   3.711   3.711   3.244
 INFORMATION **** SET_MPP **** PCRYSTAL CALCULATION
 INFORMATION **** READM2 **** NEW DEFAULT: FOCK/KS MATRIX MIXING SET TO 30 %
 INFORMATION **** READM2 **** NEW DEFAULT: FULL DIRECT SCF MODE
 INFORMATION **** READM2 **** NEW DEFAULT: COULOMB BIPOLAR BUFFER SET TO 32 Mb
 INFORMATION **** READM2 **** NEW DEFAULT: EXCHANGE BIPOLAR BUFFER SET TO 32 Mb

 *******************************************************************************
 NEW DEFAULT: DFT INTEGRATION GRID INCREASED TO XLGRID
 NEW DEFAULT: DIIS ACCELERATOR ACTIVE
 USE KEYWORD NODIIS TO TURN IT OFF
 *******************************************************************************

 INFORMATION **** READM2 **** FULL DIRECT SCF (MONO AND BIEL INT) SELECTED
 INFORMATION **** BIPOSIZE **** COULOMB BIPOLAR BUFFER SET TO   100000000
 INFORMATION **** EXCHSIZE **** EXCHANGE BIPOLAR BUFFER SIZE SET TO    10000000
 INFORMATION **** TOLDEE **** SCF TOL ON TOTAL ENERGY SET TO          10
 INFORMATION **** TOLINTEG **** COULOMB AND EXCHANGE SERIES TOLERANCES MODIFIED
 INFORMATION **** MAXCYCLE **** MAX NUMBER OF SCF CYCLES SET TO         200
 INFORMATION **** SMEAR **** FERMI SMEARING ACTIVE
 FERMI SMEARING - TEMPERATURE SMEARING OF FERMI SURFACE  0.1000E-12
 INFORMATION **** SAVEWF **** not fully tested
 INFORMATION **** SPINLOCK **** LOCK IN A GIVEN SPIN STATE
 ALPHA-BETA ELECTRONS LOCKED TO   0 FOR 200 SCF CYCLES
 SSSSSSSSSSSSSSSSSSSSSSSSSSSSSSSSSSSSSSSSSSSSSSSSSSSSSSSSSSSSSSSSSSSSSSSSSSSSSS
 ATOMIC SPINS SET TO (ATOM, AT. N., SPIN)
   1 229 1   2 229-1   3 229 1   4 229-1   5 229-1   6 229 1   7 229-1   8 229 1
   9 208 0  10 208 0  11 208 0  12 208 0  13 208 0  14 208 0  15 208 0  16 208 0
  17 208 0  18 208 0  19 208 0  20 208 0  21 208 0  22 208 0  23 208 0  24 208 0
  25 238 0  26 238 0  27 238 0  28 238 0  29 238 0  30 238 0  31 238 0  32 238 0
 *******************************************************************************
 N. OF ATOMS PER CELL        32  COULOMB OVERLAP TOL         (T1) 10**   -8
 NUMBER OF SHELLS           272  COULOMB PENETRATION TOL     (T2) 10**   -8
 NUMBER OF AO               800  EXCHANGE OVERLAP TOL        (T3) 10**   -8
 N. OF ELECTRONS PER CELL   264  EXCHANGE PSEUDO OVP (F(G))  (T4) 10**   -8
 CORE ELECTRONS PER CELL      0  EXCHANGE PSEUDO OVP (P(G))  (T5) 10**  -16
 N. OF SYMMETRY OPERATORS    16  POLE ORDER IN MONO ZONE                  4
 *******************************************************************************
 TYPE OF CALCULATION :  UNRESTRICTED OPEN SHELL
 KOHN-SHAM HAMILTONIAN

 (EXCHANGE)[CORRELATION] FUNCTIONAL:(PERDEW-BURKE-ERNZERHOF)[PERDEW-BURKE-ERNZERHOF]


 HYBRID EXCHANGE - PERCENTAGE OF FOCK EXCHANGE    25.0000

 SPIN POLARIZED DFT SELECTED
 CORE  PSEUDO POTENTIAL         TOL. ON PSEUDO              (TP) 10**- 6

 CAPPA:IS1  5;IS2  5;IS3  4; K PTS MONK NET  18; SYMMOPS:K SPACE  16;G SPACE  16

 *******************************************************************************
 MAX NUMBER OF SCF CYCLES     200  CONVERGENCE ON DELTAP        10**-20
 WEIGHT OF F(I) IN F(I+1)      90% CONVERGENCE ON ENERGY        10**-10
 SHRINK. FACT.(MONKH.)    5  5  4  NUMBER OF K POINTS IN THE IBZ     18
 SHRINKING FACTOR(GILAT NET)   10  NUMBER OF K POINTS(GILAT NET)    105
 *******************************************************************************
 *** K POINTS COORDINATES (OBLIQUE COORDINATES IN UNITS OF IS =  5)
   1-R(  0  0  0)   2-C(  1  0  0)   3-C(  2  0  0)   4-C(  1  1  0)
   5-C(  2  1  0)   6-C(  2  2  0)   7-C(  0  0  1)   8-C(  1  0  1)
   9-C(  2  0  1)  10-C(  1  1  1)  11-C(  2  1  1)  12-C(  2  2  1)
  13-R(  0  0  2)  14-C(  1  0  2)  15-C(  2  0  2)  16-C(  1  1  2)
  17-C(  2  1  2)  18-C(  2  2  2)

 DIRECT LATTICE VECTORS COMPON. (A.U.)     RECIP. LATTICE VECTORS COMPON. (A.U.) 
        X            Y            Z              X            Y            Z
  -14.8451216  -14.8451216    0.0000000     -0.2116246   -0.2116246    0.0000000
   14.8451216  -14.8451216    0.0000000      0.2116246   -0.2116246    0.0000000
    0.0000000    0.0000000    6.4889416      0.0000000    0.0000000    0.9682912

 DISK SPACE FOR EIGENVECTORS (FTN 10)    21760000 REALS

 SYMMETRY ADAPTION OF THE BLOCH FUNCTIONS ENABLED
 TTTTTTTTTTTTTTTTTTTTTTTTTTTTTT gordsh1     TELAPSE        1.66 TCPU        0.07

 MATRIX SIZE: P(G) 2526000, F(G)  450872, P(G) IRR  121758, F(G) IRR   50866
 MAX G-VECTOR INDEX FOR 1- AND 2-ELECTRON INTEGRALS  75

 TTTTTTTTTTTTTTTTTTTTTTTTTTTTTT INPUT       TELAPSE        1.72 TCPU        0.13

 NEIGHBORS OF THE NON-EQUIVALENT ATOMS

 N = NUMBER OF NEIGHBORS AT DISTANCE R
    ATOM  N     R/ANG      R/AU   NEIGHBORS (ATOM LABELS AND CELL INDICES)
   1 CU   4     1.9639     3.7113    9 O    1 1 0   10 O    0 0 0   17 O    1 0 0
                                    21 O    0 1 0
   1 CU   8     3.2652     6.1704   25 SR   1 0 0   25 SR   1 0-1   26 SR   0 0-1
                                    26 SR   0 0 0   29 SR   0 1-1   29 SR   0 1 0
                                    30 SR   0 0 0   30 SR   0 0-1
   1 CU   2     3.4338     6.4889    1 CU   0 0-1    1 CU   0 0 1
   1 CU   4     3.9278     7.4226    2 CU   0 0 0    4 CU   1 1 0    5 CU   0 1 0
                                     7 CU   1 0 0
   1 CU   8     3.9558     7.4753    9 O    1 1 1    9 O    1 1-1   10 O    0 0 1
                                    10 O    0 0-1   17 O    1 0-1   17 O    1 0 1
                                    21 O    0 1-1   21 O    0 1 1
   1 CU   8     4.3915     8.2987   13 O    0 1 0   14 O    0 1 0   15 O    1 0 0
                                    16 O    1 0 0   18 O    0 0 0   20 O    1 1 0
                                    22 O    0 0 0   24 O    1 1 0

   2 CU   4     1.9639     3.7113   10 O    0 0 0   11 O    0 0 0   18 O    0 0 0
                                    22 O    0 0 0
   2 CU   8     3.2652     6.1704   26 SR   0 0-1   26 SR   0 0 0   27 SR   0 0-1
                                    27 SR   0 0 0   30 SR   0 0 0   30 SR   0 0-1
                                    31 SR   0 0 0   31 SR   0 0-1
   2 CU   2     3.4338     6.4889    2 CU   0 0-1    2 CU   0 0 1
   2 CU   4     3.9278     7.4226    1 CU   0 0 0    3 CU   0 0 0    6 CU   0 0 0
                                     8 CU   0 0 0
   2 CU   8     3.9558     7.4753   10 O    0 0-1   10 O    0 0 1   11 O    0 0 1
                                    11 O    0 0-1   18 O    0 0-1   18 O    0 0 1
                                    22 O    0 0 1   22 O    0 0-1
   2 CU   8     4.3915     8.2987   13 O    0 0 0   14 O    0 1 0   15 O    0 0 0
                                    16 O    1 0 0   17 O    1 0 0   19 O    0 0 0
                                    21 O    0 1 0   23 O    0 0 0

   3 CU   4     1.9639     3.7113   11 O    0 0 0   12 O    0 0 0   19 O    0 0 0
                                    23 O    0 0 0
   3 CU   8     3.2652     6.1704   27 SR   0 0 0   27 SR   0 0-1   28 SR   0 0-1
                                    28 SR   0 0 0   31 SR   0 0-1   31 SR   0 0 0
                                    32 SR   0 0 0   32 SR   0 0-1
   3 CU   2     3.4338     6.4889    3 CU   0 0-1    3 CU   0 0 1
   3 CU   4     3.9278     7.4226    2 CU   0 0 0    4 CU   0 0 0    5 CU   0 0 0
                                     7 CU   0 0 0
   3 CU   8     3.9558     7.4753   11 O    0 0-1   11 O    0 0 1   12 O    0 0 1
                                    12 O    0 0-1   19 O    0 0-1   19 O    0 0 1
                                    23 O    0 0 1   23 O    0 0-1
   3 CU   8     4.3915     8.2987   13 O    0 0 0   14 O    0 0 0   15 O    0 0 0
                                    16 O    0 0 0   18 O    0 0 0   20 O    0 0 0
                                    22 O    0 0 0   24 O    0 0 0

   6 CU   4     1.9639     3.7113   14 O    0 1 0   15 O    0 0 0   20 O    0 1 0
                                    22 O    0 0 0
   6 CU   8     3.2652     6.1704   25 SR   0 0 0   25 SR   0 0-1   28 SR   0 1-1
                                    28 SR   0 1 0   30 SR   0 0 0   30 SR   0 0-1
                                    31 SR   0 0-1   31 SR   0 0 0
   6 CU   2     3.4338     6.4889    6 CU   0 0-1    6 CU   0 0 1
   6 CU   4     3.9278     7.4226    2 CU   0 0 0    4 CU   0 1 0    5 CU   0 1 0
                                     7 CU   0 0 0
   6 CU   8     3.9558     7.4753   14 O    0 1-1   14 O    0 1 1   15 O    0 0-1
                                    15 O    0 0 1   20 O    0 1 1   20 O    0 1-1
                                    22 O    0 0 1   22 O    0 0-1
   6 CU   8     4.3915     8.2987    9 O    0 1 0   10 O    0 0 0   11 O    0 0 0
                                    12 O    0 1 0   17 O    0 0 0   19 O    0 1 0
                                    21 O    0 1 0   23 O    0 0 0

   9 O    2     1.9639     3.7113    1 CU  -1-1 0    4 CU   0 0 0
   9 O    4     2.6086     4.9295   25 SR   0-1 0   25 SR   0-1-1   29 SR  -1 0-1
                                    29 SR  -1 0 0
   9 O    4     2.7774     5.2485   17 O    0-1 0   20 O    0 0 0   21 O   -1 0 0
                                    24 O    0 0 0
   9 O    2     3.4338     6.4889    9 O    0 0-1    9 O    0 0 1
   9 O    4     3.9279     7.4226   10 O   -1-1 0   12 O    0 0 0   13 O   -1 0 0
                                    15 O    0-1 0
   9 O    4     3.9558     7.4753    1 CU  -1-1-1    1 CU  -1-1 1    4 CU   0 0-1
                                     4 CU   0 0 1

  11 O    2     1.9639     3.7113    2 CU   0 0 0    3 CU   0 0 0
  11 O    4     2.6086     4.9295   27 SR   0 0 0   27 SR   0 0-1   31 SR   0 0 0
                                    31 SR   0 0-1
  11 O    4     2.7774     5.2485   18 O    0 0 0   19 O    0 0 0   22 O    0 0 0
                                    23 O    0 0 0
  11 O    2     3.4338     6.4889   11 O    0 0-1   11 O    0 0 1
  11 O    4     3.9278     7.4226   10 O    0 0 0   12 O    0 0 0   13 O    0 0 0
                                    15 O    0 0 0
  11 O    4     3.9558     7.4753    2 CU   0 0-1    2 CU   0 0 1    3 CU   0 0 1
                                     3 CU   0 0-1

  13 O    2     1.9639     3.7113    5 CU   0 0 0    8 CU   0 0 0
  13 O    4     2.6086     4.9295   27 SR   0 0 0   27 SR   0 0-1   29 SR   0 0-1
                                    29 SR   0 0 0
  13 O    4     2.7774     5.2485   18 O    0 0 0   19 O    0 0 0   21 O    0 0 0
                                    24 O    1 0 0
  13 O    2     3.4338     6.4889   13 O    0 0-1   13 O    0 0 1
  13 O    4     3.9278     7.4226    9 O    1 0 0   11 O    0 0 0   14 O    0 0 0
                                    16 O    1 0 0
  13 O    4     3.9558     7.4753    5 CU   0 0 1    5 CU   0 0-1    8 CU   0 0-1
                                     8 CU   0 0 1

  25 SR   8     2.6086     4.9295    9 O    0 1 0    9 O    0 1 1   15 O    0 0 0
                                    15 O    0 0 1   17 O    0 0 1   17 O    0 0 0
                                    20 O    0 1 1   20 O    0 1 0
  25 SR   8     3.2652     6.1704    1 CU  -1 0 0    1 CU  -1 0 1    4 CU   0 1 0
                                     4 CU   0 1 1    6 CU   0 0 0    6 CU   0 0 1
                                     7 CU   0 0 0    7 CU   0 0 1
  25 SR   2     3.4338     6.4889   25 SR   0 0-1   25 SR   0 0 1
  25 SR   4     3.9278     7.4226   26 SR  -1 0 0   28 SR   0 1 0   29 SR  -1 1 0
                                    31 SR   0 0 0
  25 SR  16     4.7152     8.9104   10 O   -1 0 0   10 O   -1 0 1   12 O    0 1 0
                                    12 O    0 1 1   14 O    0 1 0   14 O    0 1 1
                                    16 O    0 0 0   16 O    0 0 1   21 O   -1 1 1
                                    21 O   -1 1 0   22 O    0 0 1   22 O    0 0 0
                                    23 O    0 0 1   23 O    0 0 0   24 O    0 1 1
                                    24 O    0 1 0
  25 SR   8     5.2172     9.8590   26 SR  -1 0-1   26 SR  -1 0 1   28 SR   0 1 1
                                    28 SR   0 1-1   29 SR  -1 1 1   29 SR  -1 1-1
                                    31 SR   0 0-1   31 SR   0 0 1

  27 SR   8     2.6086     4.9295   11 O    0 0 0   11 O    0 0 1   13 O    0 0 0
                                    13 O    0 0 1   18 O    0 0 1   18 O    0 0 0
                                    19 O    0 0 1   19 O    0 0 0
  27 SR   8     3.2652     6.1704    2 CU   0 0 1    2 CU   0 0 0    3 CU   0 0 0
                                     3 CU   0 0 1    5 CU   0 0 1    5 CU   0 0 0
                                     8 CU   0 0 0    8 CU   0 0 1
  27 SR   2     3.4338     6.4889   27 SR   0 0-1   27 SR   0 0 1
  27 SR   4     3.9278     7.4226   26 SR   0 0 0   28 SR   0 0 0   29 SR   0 0 0
                                    31 SR   0 0 0
  27 SR  16     4.7152     8.9104   10 O    0 0 0   10 O    0 0 1   12 O    0 0 1
                                    12 O    0 0 0   14 O    0 0 0   14 O    0 0 1
                                    16 O    1 0 0   16 O    1 0 1   21 O    0 0 1
                                    21 O    0 0 0   22 O    0 0 1   22 O    0 0 0
                                    23 O    0 0 0   23 O    0 0 1   24 O    1 0 1
                                    24 O    1 0 0
  27 SR   8     5.2172     9.8590   26 SR   0 0 1   26 SR   0 0-1   28 SR   0 0 1
                                    28 SR   0 0-1   29 SR   0 0-1   29 SR   0 0 1
                                    31 SR   0 0 1   31 SR   0 0-1


 SYMMETRY ALLOWED INTERNAL DEGREE(S) OF FREEDOM:   7
 TTTTTTTTTTTTTTTTTTTTTTTTTTTTTT SYMM        TELAPSE        2.24 TCPU        0.63
 TTTTTTTTTTTTTTTTTTTTTTTTTTTTTT INT_SCREEN  TELAPSE        2.25 TCPU        0.63
 INFORMATION **** EXCBUF **** EXCH. BIPO BUFFER: WORDS USED =     7956090

 DFT PARAMETERS

     ATOM       ELECTRONS   NET CHARGE   R(ANGSTROM)
   1 229  CU     17.0000      2.0000     0.73000000
   9 208  O       8.0000     -2.0000     1.40000000
  25 238  SR      0.0000      2.0000     1.18000000

 SIZE OF GRID=      48232
 TTTTTTTTTTTTTTTTTTTTTTTTTTTTTT MAKE_GRID2  TELAPSE        3.78 TCPU        2.14
 BECKE WEIGHT FUNCTION
 RADSAFE =     2.00
 TOLERANCES - DENSITY:10**- 6; POTENTIAL:10**- 9; GRID WGT:10**-14

 RADIAL INTEGRATION  - INTERVALS (POINTS,UPPER LIMIT):            1( 75,  4.0*R)

 ANGULAR INTEGRATION - INTERVALS (ACCURACY LEVEL [N. POINTS] UPPER LIMIT):
  1(  4[  86]   0.2)  2(  8[ 194]   0.5)  3( 12[ 350]   0.9)  4( 16[ 974]   3.5)
  5( 12[ 350]9999.0)
 TTTTTTTTTTTTTTTTTTTTTTTTTTTTTT INT_CALC    TELAPSE        3.80 TCPU        2.17
 EEEEEEEEEE INT_CALC TERMINATION  DATE 24 03 2018 TIME 20:51:46.3

 *******************************************************************************
 Generated by CrystalWriter                                                      
 CRYSTAL - SCF - TYPE OF CALCULATION :  UNRESTRICTED OPEN SHELL
 *******************************************************************************

 CAPPA:IS1  5;IS2  5;IS3  4; K PTS MONK NET  18; SYMMOPS:K SPACE  16;G SPACE  16

 TTTTTTTTTTTTTTTTTTTTTTTTTTTTTT SDIK        TELAPSE        3.91 TCPU        2.27

 AAAAAAAAAAAAAAAAAAAAAAAAAAAAAAAAAAAAAAAAAAAAAAAAAAAAAAAAAAAAAAAAAAAAAAAAAAAAAAA
         ATOMIC WAVEFUNCTION(S)


 NUCLEAR CHARGE 19.0  SYMMETRY SPECIES            S    P    D
 N. ELECTRONS   17.0  NUMBER OF PRIMITIVE GTOS   14    9    7
                      NUMBER OF CONTRACTED GTOS   4    3    3
                      NUMBER OF CLOSED SHELLS     1    1    0
                      OPEN SHELL OCCUPATION       0    0    9

  ZNUC SCFIT  TOTAL HF ENERGY   KINETIC ENERGY   VIRIAL THEOREM ACCURACY
  19.0  24   -1.953432393E+02  1.248337040E+02 -2.564827712E+00  3.3E-06

 NUCLEAR CHARGE  6.0  SYMMETRY SPECIES            S    P
 N. ELECTRONS    8.0  NUMBER OF PRIMITIVE GTOS   10    9
                      NUMBER OF CONTRACTED GTOS   3    3
                      NUMBER OF CLOSED SHELLS     1    1
                      OPEN SHELL OCCUPATION       0    0

  ZNUC SCFIT  TOTAL HF ENERGY   KINETIC ENERGY   VIRIAL THEOREM ACCURACY
   6.0  43   -1.519668598E+01  1.229882609E+01 -2.235620852E+00  4.1E-06

 AAAAAAAAAAAAAAAAAAAAAAAAAAAAAAAAAAAAAAAAAAAAAAAAAAAAAAAAAAAAAAAAAAAAAAAAAAAAAAA

 CHARGE NORMALIZATION FACTOR   1.00000000
 TOTAL ATOMIC CHARGES:
  17.0000000  17.0000000  17.0000000  17.0000000  17.0000000  17.0000000
  17.0000000  17.0000000   8.0000000   8.0000000   8.0000000   8.0000000
   8.0000000   8.0000000   8.0000000   8.0000000   8.0000000   8.0000000
   8.0000000   8.0000000   8.0000000   8.0000000   8.0000000   8.0000000
   0.0000000   0.0000000   0.0000000   0.0000000   0.0000000   0.0000000
   0.0000000   0.0000000
 SUMMED SPIN DENSITY           0.00000000
 TOTAL ATOMIC SPINS  :
   1.0000000  -1.0000000   1.0000000  -1.0000000  -1.0000000   1.0000000
  -1.0000000   1.0000000   0.0000000   0.0000000   0.0000000   0.0000000
   0.0000000   0.0000000   0.0000000   0.0000000   0.0000000   0.0000000
   0.0000000   0.0000000   0.0000000   0.0000000   0.0000000   0.0000000
   0.0000000   0.0000000   0.0000000   0.0000000   0.0000000   0.0000000
   0.0000000   0.0000000
 TTTTTTTTTTTTTTTTTTTTTTTTTTTTTT MOQGAD      TELAPSE        4.32 TCPU        2.67
[golub379:29050] 27 more processes have sent help message help-mpi-btl-openib.txt / no device params found
[golub379:29050] Set MCA parameter "orte_base_help_aggregate" to 0 to see all help / error messages
 TTTTTTTTTTTTTTTTTTTTTTTTTTTTTT SHELLXN     TELAPSE       52.64 TCPU       50.92
 TTTTTTTTTTTTTTTTTTTTTTTTTTTTTT MONMO3      TELAPSE       70.10 TCPU       68.38
 NUMERICALLY INTEGRATED DENSITY    132.0001145373    132.0001145373
 TTTTTTTTTTTTTTTTTTTTTTTTTTTTTT NUMDFT      TELAPSE       70.63 TCPU       68.91
 CYC   0 ETOT(AU) -1.841348157513E+03 DETOT -1.84E+03 tst  0.00E+00 PX  1.00E+00
 CYCLE  0 WAVE FUNCTION SAVED IN FORTRAN UNIT 79
 TTTTTTTTTTTTTTTTTTTTTTTTTTTTTT DIIS        TELAPSE       71.02 TCPU       69.24
 TTTTTTTTTTTTTTTTTTTTTTTTTTTTTT FDIK        TELAPSE       80.23 TCPU       78.27
 SPIN LOCKING: NO ENERGY GAP COMPUTED
 TTTTTTTTTTTTTTTTTTTTTTTTTTTTTT PDIG        TELAPSE       80.87 TCPU       78.90
 CHARGE NORMALIZATION FACTOR   0.99992425
 TOTAL ATOMIC CHARGES:
  18.2253199  18.2239969  18.2253207  18.2239969  18.2239969  18.2206883
  18.2239969  18.2206883   7.3138733   7.3138733   7.3138726   7.3138726
   7.3123277   7.3123277   7.3123277   7.3123277   7.3138733   7.3123277
   7.3138726   7.3123277   7.3138733   7.3123277   7.3138726   7.3123277
   0.1502988   0.1502988   0.1502988   0.1502988   0.1502988   0.1502988
   0.1502988   0.1502988
 SUMMED SPIN DENSITY          -0.01999848
 TOTAL ATOMIC SPINS  :
   0.3352846  -0.3342360   0.3352848  -0.3342360  -0.3342360   0.3306512
  -0.3342360   0.3306512  -0.0001598  -0.0001598  -0.0001598  -0.0001598
  -0.0017053  -0.0017053  -0.0017053  -0.0017053  -0.0001598  -0.0017053
  -0.0001598  -0.0017053  -0.0001598  -0.0017053  -0.0001598  -0.0017053
  -0.0000007  -0.0000007  -0.0000007  -0.0000007  -0.0000007  -0.0000007
  -0.0000007  -0.0000007
 TTTTTTTTTTTTTTTTTTTTTTTTTTTTTT MOQGAD      TELAPSE       80.89 TCPU       78.93
 TTTTTTTTTTTTTTTTTTTTTTTTTTTTTT SHELLXN     TELAPSE      132.86 TCPU      130.86
 TTTTTTTTTTTTTTTTTTTTTTTTTTTTTT MONMO3      TELAPSE      148.77 TCPU      146.76
 NUMERICALLY INTEGRATED DENSITY    131.9900959044    132.0100944181
 TTTTTTTTTTTTTTTTTTTTTTTTTTTTTT NUMDFT      TELAPSE      150.09 TCPU      148.08
 CYC   1 ETOT(AU) -1.842292345420E+03 DETOT -9.44E-01 tst  0.00E+00 PX  1.00E+00
 CYCLE  1 WAVE FUNCTION SAVED IN FORTRAN UNIT 79
 TTTTTTTTTTTTTTTTTTTTTTTTTTTTTT DIIS        TELAPSE      150.93 TCPU      148.84
 DIIS TEST: 0.28331E+00 AT SCF   CYCLE   1 - MIX   90 %
 TTTTTTTTTTTTTTTTTTTTTTTTTTTTTT FDIK        TELAPSE      152.71 TCPU      150.61
 SPIN LOCKING: NO ENERGY GAP COMPUTED
 TTTTTTTTTTTTTTTTTTTTTTTTTTTTTT PDIG        TELAPSE      153.33 TCPU      151.24
 CHARGE NORMALIZATION FACTOR   1.00011365
 TOTAL ATOMIC CHARGES:
  18.1764060  18.1773533  18.1764068  18.1773533  18.1773533  18.1826722
  18.1773533  18.1826722   7.3340316   7.3340316   7.3340309   7.3340309
   7.3354547   7.3354547   7.3354547   7.3354547   7.3340316   7.3354547
   7.3340309   7.3354547   7.3340316   7.3354547   7.3340309   7.3354547
   0.1520678   0.1520678   0.1520678   0.1520678   0.1520678   0.1520678
   0.1520678   0.1520678
 SUMMED SPIN DENSITY           0.03000341
 TOTAL ATOMIC SPINS  :
   0.3777208  -0.3766296   0.3777211  -0.3766296  -0.3766296   0.3794595
  -0.3766296   0.3794595   0.0007158   0.0007158   0.0007157   0.0007157
   0.0020385   0.0020385   0.0020385   0.0020385   0.0007158   0.0020385
   0.0007157   0.0020385   0.0007158   0.0020385   0.0007157   0.0020385
   0.0000159   0.0000159   0.0000159   0.0000159   0.0000159   0.0000159
   0.0000159   0.0000159
 TTTTTTTTTTTTTTTTTTTTTTTTTTTTTT MOQGAD      TELAPSE      153.36 TCPU      151.26
 TTTTTTTTTTTTTTTTTTTTTTTTTTTTTT SHELLXN     TELAPSE      205.24 TCPU      203.15
 TTTTTTTTTTTTTTTTTTTTTTTTTTTTTT MONMO3      TELAPSE      221.28 TCPU      219.11
 NUMERICALLY INTEGRATED DENSITY    132.0150942831    131.9850908832
 TTTTTTTTTTTTTTTTTTTTTTTTTTTTTT NUMDFT      TELAPSE      222.81 TCPU      220.63
 CYC   2 ETOT(AU) -1.842383633103E+03 DETOT -9.13E-02 tst  1.11E-04 PX  6.64E-02
 CYCLE  2 WAVE FUNCTION SAVED IN FORTRAN UNIT 79
 TTTTTTTTTTTTTTTTTTTTTTTTTTTTTT DIIS        TELAPSE      223.86 TCPU      221.63
 DIIS TEST: 0.18183E+00 AT SCF   CYCLE   2 - DIIS ACTIVE - HISTORY:     2 CYCLES
 TTTTTTTTTTTTTTTTTTTTTTTTTTTTTT FDIK        TELAPSE      225.83 TCPU      223.58
 SPIN LOCKING: NO ENERGY GAP COMPUTED
 TTTTTTTTTTTTTTTTTTTTTTTTTTTTTT PDIG        TELAPSE      226.46 TCPU      224.21
 CHARGE NORMALIZATION FACTOR   1.00000000
 TOTAL ATOMIC CHARGES:
  18.0301622  18.0201156  18.0301632  18.0201156  18.0201156  17.9811660
  18.0201156  17.9811660   7.4080663   7.4080663   7.4080655   7.4080655
   7.4086876   7.4086876   7.4086876   7.4086876   7.4080663   7.4086876
   7.4080655   7.4086876   7.4080663   7.4086876   7.4080655   7.4086876
   0.1703565   0.1703565   0.1703566   0.1703566   0.1703565   0.1703565
   0.1703566   0.1703566
 SUMMED SPIN DENSITY           0.00000000
 TOTAL ATOMIC SPINS  :
   0.4810602  -0.4883586   0.4810606  -0.4883586  -0.4883586   0.5051223
  -0.4883586   0.5051223   0.0005866   0.0005866   0.0005868   0.0005868
  -0.0028609  -0.0028609  -0.0028609  -0.0028609   0.0005866  -0.0028609
   0.0005868  -0.0028609   0.0005866  -0.0028609   0.0005868  -0.0028609
  -0.0000921  -0.0000921  -0.0000922  -0.0000922  -0.0000921  -0.0000921
  -0.0000922  -0.0000922
 TTTTTTTTTTTTTTTTTTTTTTTTTTTTTT MOQGAD      TELAPSE      226.49 TCPU      224.23
 TTTTTTTTTTTTTTTTTTTTTTTTTTTTTT SHELLXN     TELAPSE      278.46 TCPU      276.20
 TTTTTTTTTTTTTTTTTTTTTTTTTTTTTT MONMO3      TELAPSE      294.98 TCPU      292.53
 NUMERICALLY INTEGRATED DENSITY    132.0000633111    132.0000630297
 TTTTTTTTTTTTTTTTTTTTTTTTTTTTTT NUMDFT      TELAPSE      296.20 TCPU      293.75
 CYC   3 ETOT(AU) -1.842446519533E+03 DETOT -6.29E-02 tst  4.60E-03 PX  2.02E-01
 CYCLE  3 WAVE FUNCTION SAVED IN FORTRAN UNIT 79
 TTTTTTTTTTTTTTTTTTTTTTTTTTTTTT DIIS        TELAPSE      297.04 TCPU      294.52
 DIIS TEST: 0.80415E-01 AT SCF   CYCLE   3 - DIIS ACTIVE - HISTORY:     3 CYCLES
 TTTTTTTTTTTTTTTTTTTTTTTTTTTTTT FDIK        TELAPSE      299.41 TCPU      296.89
 SPIN LOCKING: NO ENERGY GAP COMPUTED
 TTTTTTTTTTTTTTTTTTTTTTTTTTTTTT PDIG        TELAPSE      300.04 TCPU      297.51
 CHARGE NORMALIZATION FACTOR   1.00000000
 TOTAL ATOMIC CHARGES:
  17.9676932  17.9857581  17.9676937  17.9857581  17.9857581  18.0834114
  17.9857581  18.0834114   7.4188385   7.4188385   7.4188380   7.4188380
   7.4132831   7.4132831   7.4132831   7.4132831   7.4188385   7.4132831
   7.4188380   7.4132831   7.4188385   7.4132831   7.4188380   7.4132831
   0.1622234   0.1622234   0.1622234   0.1622234   0.1622234   0.1622234
   0.1622234   0.1622234
 SUMMED SPIN DENSITY          -0.00000000
 TOTAL ATOMIC SPINS  :
   0.5443860  -0.5323926   0.5443865  -0.5323926  -0.5323926   0.4897989
  -0.5323926   0.4897989  -0.0015769  -0.0015769  -0.0015768  -0.0015768
   0.0091962   0.0091962   0.0091962   0.0091962  -0.0015769   0.0091962
  -0.0015768   0.0091962  -0.0015769   0.0091962  -0.0015768   0.0091962
   0.0000307   0.0000307   0.0000307   0.0000307   0.0000307   0.0000307
   0.0000307   0.0000307
 TTTTTTTTTTTTTTTTTTTTTTTTTTTTTT MOQGAD      TELAPSE      300.07 TCPU      297.54
 TTTTTTTTTTTTTTTTTTTTTTTTTTTTTT SHELLXN     TELAPSE      357.63 TCPU      349.47
 TTTTTTTTTTTTTTTTTTTTTTTTTTTTTT MONMO3      TELAPSE      375.29 TCPU      367.14
 NUMERICALLY INTEGRATED DENSITY    132.0000680406    132.0000683318
 TTTTTTTTTTTTTTTTTTTTTTTTTTTTTT NUMDFT      TELAPSE      376.49 TCPU      368.34
 CYC   4 ETOT(AU) -1.842449262310E+03 DETOT -2.74E-03 tst  1.06E-03 PX  7.23E-02
 CYCLE  4 WAVE FUNCTION SAVED IN FORTRAN UNIT 79
 TTTTTTTTTTTTTTTTTTTTTTTTTTTTTT DIIS        TELAPSE      377.33 TCPU      369.17
 DIIS TEST: 0.14930E+00 AT SCF   CYCLE   4 - DIIS ACTIVE - HISTORY:     4 CYCLES
 TTTTTTTTTTTTTTTTTTTTTTTTTTTTTT FDIK        TELAPSE      379.39 TCPU      371.23
 SPIN LOCKING: NO ENERGY GAP COMPUTED
 TTTTTTTTTTTTTTTTTTTTTTTTTTTTTT PDIG        TELAPSE      380.01 TCPU      371.85
 CHARGE NORMALIZATION FACTOR   1.00000000
 TOTAL ATOMIC CHARGES:
  18.0203604  18.0207985  18.0203604  18.0207985  18.0207985  17.9881400
  18.0207985  17.9881400   7.4089660   7.4089660   7.4089656   7.4089656
   7.4148602   7.4148602   7.4148602   7.4148602   7.4089660   7.4148602
   7.4089656   7.4148602   7.4089660   7.4148602   7.4089656   7.4148602
   0.1636496   0.1636496   0.1636496   0.1636496   0.1636496   0.1636496
   0.1636496   0.1636496
 SUMMED SPIN DENSITY           0.00000000
 TOTAL ATOMIC SPINS  :
   0.5352120  -0.5374795   0.5352129  -0.5374795  -0.5374795   0.5515620
  -0.5374795   0.5515620  -0.0000192  -0.0000192  -0.0000192  -0.0000192
  -0.0029188  -0.0029188  -0.0029188  -0.0029188  -0.0000192  -0.0029188
  -0.0000192  -0.0029188  -0.0000192  -0.0029188  -0.0000192  -0.0029188
  -0.0000158  -0.0000158  -0.0000159  -0.0000159  -0.0000158  -0.0000158
  -0.0000159  -0.0000159
 TTTTTTTTTTTTTTTTTTTTTTTTTTTTTT MOQGAD      TELAPSE      380.04 TCPU      371.88
 TTTTTTTTTTTTTTTTTTTTTTTTTTTTTT SHELLXN     TELAPSE      432.24 TCPU      423.91
 TTTTTTTTTTTTTTTTTTTTTTTTTTTTTT MONMO3      TELAPSE      447.88 TCPU      439.56
 NUMERICALLY INTEGRATED DENSITY    132.0000675065    132.0000673858
 TTTTTTTTTTTTTTTTTTTTTTTTTTTTTT NUMDFT      TELAPSE      449.09 TCPU      440.76
 CYC   5 ETOT(AU) -1.842467700208E+03 DETOT -1.84E-02 tst  8.81E-04 PX  7.75E-02
 CYCLE  5 WAVE FUNCTION SAVED IN FORTRAN UNIT 79
 TTTTTTTTTTTTTTTTTTTTTTTTTTTTTT DIIS        TELAPSE      449.97 TCPU      441.59
 DIIS TEST: 0.28858E-01 AT SCF   CYCLE   5 - DIIS ACTIVE - HISTORY:     5 CYCLES
 TTTTTTTTTTTTTTTTTTTTTTTTTTTTTT FDIK        TELAPSE      452.22 TCPU      443.83
 SPIN LOCKING: NO ENERGY GAP COMPUTED
 TTTTTTTTTTTTTTTTTTTTTTTTTTTTTT PDIG        TELAPSE      452.85 TCPU      444.46
 CHARGE NORMALIZATION FACTOR   1.00000000
 TOTAL ATOMIC CHARGES:
  18.0178090  18.0159638  18.0178100  18.0159638  18.0159638  18.0317123
  18.0159638  18.0317123   7.4081290   7.4081290   7.4081285   7.4081285
   7.4054732   7.4054732   7.4054732   7.4054732   7.4081290   7.4054732
   7.4081285   7.4054732   7.4081290   7.4054732   7.4081285   7.4054732
   0.1660357   0.1660357   0.1660357   0.1660357   0.1660357   0.1660357
   0.1660357   0.1660357
 SUMMED SPIN DENSITY           0.00000000
 TOTAL ATOMIC SPINS  :
   0.5522180  -0.5520470   0.5522181  -0.5520470  -0.5520470   0.5450907
  -0.5520470   0.5450907   0.0002961   0.0002961   0.0002963   0.0002963
   0.0013622   0.0013622   0.0013622   0.0013622   0.0002961   0.0013622
   0.0002963   0.0013622   0.0002961   0.0013622   0.0002963   0.0013622
   0.0000379   0.0000379   0.0000379   0.0000379   0.0000379   0.0000379
   0.0000379   0.0000379
 TTTTTTTTTTTTTTTTTTTTTTTTTTTTTT MOQGAD      TELAPSE      452.88 TCPU      444.49
 TTTTTTTTTTTTTTTTTTTTTTTTTTTTTT SHELLXN     TELAPSE      505.30 TCPU      496.45
 TTTTTTTTTTTTTTTTTTTTTTTTTTTTTT MONMO3      TELAPSE      521.42 TCPU      512.49
 NUMERICALLY INTEGRATED DENSITY    132.0000661306    132.0000662525
 TTTTTTTTTTTTTTTTTTTTTTTTTTTTTT NUMDFT      TELAPSE      522.76 TCPU      513.78
 CYC   6 ETOT(AU) -1.842472532055E+03 DETOT -4.83E-03 tst  1.53E-04 PX  2.11E-02
 CYCLE  6 WAVE FUNCTION SAVED IN FORTRAN UNIT 79
 TTTTTTTTTTTTTTTTTTTTTTTTTTTTTT DIIS        TELAPSE      523.66 TCPU      514.57
 DIIS TEST: 0.49258E-02 AT SCF   CYCLE   6 - DIIS ACTIVE - HISTORY:     6 CYCLES
 TTTTTTTTTTTTTTTTTTTTTTTTTTTTTT FDIK        TELAPSE      525.58 TCPU      516.47
 SPIN LOCKING: NO ENERGY GAP COMPUTED
 TTTTTTTTTTTTTTTTTTTTTTTTTTTTTT PDIG        TELAPSE      526.21 TCPU      517.10
 CHARGE NORMALIZATION FACTOR   1.00000000
 TOTAL ATOMIC CHARGES:
  18.0032895  18.0155933  18.0032906  18.0155933  18.0155933  18.0086042
  18.0155933  18.0086042   7.4110259   7.4110259   7.4110254   7.4110254
   7.4124517   7.4124517   7.4124517   7.4124517   7.4110259   7.4124517
   7.4110254   7.4124517   7.4110259   7.4124517   7.4110254   7.4124517
   0.1657525   0.1657525   0.1657525   0.1657525   0.1657525   0.1657525
   0.1657525   0.1657525
 SUMMED SPIN DENSITY           0.00000000
 TOTAL ATOMIC SPINS  :
   0.5824738  -0.5770933   0.5824738  -0.5770933  -0.5770933   0.5788623
  -0.5770933   0.5788623  -0.0011674  -0.0011674  -0.0011672  -0.0011672
  -0.0006112  -0.0006112  -0.0006112  -0.0006112  -0.0011674  -0.0006112
  -0.0011672  -0.0006112  -0.0011674  -0.0006112  -0.0011672  -0.0006112
  -0.0000088  -0.0000088  -0.0000089  -0.0000089  -0.0000088  -0.0000088
  -0.0000089  -0.0000089
 TTTTTTTTTTTTTTTTTTTTTTTTTTTTTT MOQGAD      TELAPSE      526.23 TCPU      517.12
 TTTTTTTTTTTTTTTTTTTTTTTTTTTTTT SHELLXN     TELAPSE      578.27 TCPU      569.07
 TTTTTTTTTTTTTTTTTTTTTTTTTTTTTT MONMO3      TELAPSE      594.14 TCPU      584.75
 NUMERICALLY INTEGRATED DENSITY    132.0000669452    132.0000669069
 TTTTTTTTTTTTTTTTTTTTTTTTTTTTTT NUMDFT      TELAPSE      595.39 TCPU      586.00
 CYC   7 ETOT(AU) -1.842474659652E+03 DETOT -2.13E-03 tst  5.49E-04 PX  4.12E-02
 CYCLE  7 WAVE FUNCTION SAVED IN FORTRAN UNIT 79
 TTTTTTTTTTTTTTTTTTTTTTTTTTTTTT DIIS        TELAPSE      596.22 TCPU      586.75
 DIIS TEST: 0.22779E-02 AT SCF   CYCLE   7 - DIIS ACTIVE - HISTORY:     7 CYCLES
 TTTTTTTTTTTTTTTTTTTTTTTTTTTTTT FDIK        TELAPSE      598.33 TCPU      588.83
 SPIN LOCKING: NO ENERGY GAP COMPUTED
 TTTTTTTTTTTTTTTTTTTTTTTTTTTTTT PDIG        TELAPSE      598.95 TCPU      589.45
 CHARGE NORMALIZATION FACTOR   1.00000000
 TOTAL ATOMIC CHARGES:
  18.0155875  18.0064881  18.0155881  18.0064881  18.0064881  18.0112525
  18.0064881  18.0112525   7.4120119   7.4120119   7.4120115   7.4120115
   7.4123932   7.4123932   7.4123932   7.4123932   7.4120119   7.4123932
   7.4120115   7.4123932   7.4120119   7.4123932   7.4120115   7.4123932
   0.1656410   0.1656410   0.1656410   0.1656410   0.1656410   0.1656410
   0.1656410   0.1656410
 SUMMED SPIN DENSITY           0.00000000
 TOTAL ATOMIC SPINS  :
   0.5800574  -0.5833088   0.5800578  -0.5833088  -0.5833088   0.5815071
  -0.5833088   0.5815071   0.0008822   0.0008822   0.0008823   0.0008823
   0.0003638   0.0003638   0.0003638   0.0003638   0.0008822   0.0003638
   0.0008823   0.0003638   0.0008822   0.0003638   0.0008823   0.0003638
   0.0000172   0.0000172   0.0000172   0.0000172   0.0000172   0.0000172
   0.0000172   0.0000172
 TTTTTTTTTTTTTTTTTTTTTTTTTTTTTT MOQGAD      TELAPSE      598.98 TCPU      589.48
 TTTTTTTTTTTTTTTTTTTTTTTTTTTTTT SHELLXN     TELAPSE      652.28 TCPU      641.59
 TTTTTTTTTTTTTTTTTTTTTTTTTTTTTT MONMO3      TELAPSE      666.89 TCPU      656.21
 NUMERICALLY INTEGRATED DENSITY    132.0000670788    132.0000671946
 TTTTTTTTTTTTTTTTTTTTTTTTTTTTTT NUMDFT      TELAPSE      668.10 TCPU      657.42
 CYC   8 ETOT(AU) -1.842474864490E+03 DETOT -2.05E-04 tst  1.87E-05 PX  6.69E-03
 CYCLE  8 WAVE FUNCTION SAVED IN FORTRAN UNIT 79
 TTTTTTTTTTTTTTTTTTTTTTTTTTTTTT DIIS        TELAPSE      668.91 TCPU      658.18
 DIIS TEST: 0.91058E-03 AT SCF   CYCLE   8 - DIIS ACTIVE - HISTORY:     8 CYCLES
 TTTTTTTTTTTTTTTTTTTTTTTTTTTTTT FDIK        TELAPSE      670.93 TCPU      660.20
 SPIN LOCKING: NO ENERGY GAP COMPUTED
 TTTTTTTTTTTTTTTTTTTTTTTTTTTTTT PDIG        TELAPSE      671.57 TCPU      660.84
 CHARGE NORMALIZATION FACTOR   1.00000000
 TOTAL ATOMIC CHARGES:
  18.0090209  18.0114336  18.0090215  18.0114336  18.0114336  18.0115179
  18.0114336  18.0115179   7.4124789   7.4124789   7.4124785   7.4124785
   7.4110268   7.4110268   7.4110268   7.4110268   7.4124789   7.4110268
   7.4124785   7.4110268   7.4124789   7.4110268   7.4124785   7.4110268
   0.1656429   0.1656429   0.1656429   0.1656429   0.1656429   0.1656429
   0.1656429   0.1656429
 SUMMED SPIN DENSITY           0.00000000
 TOTAL ATOMIC SPINS  :
   0.5852701  -0.5841669   0.5852703  -0.5841669  -0.5841669   0.5841585
  -0.5841669   0.5841585  -0.0001338  -0.0001338  -0.0001337  -0.0001337
  -0.0001419  -0.0001419  -0.0001419  -0.0001419  -0.0001338  -0.0001419
  -0.0001337  -0.0001419  -0.0001338  -0.0001419  -0.0001337  -0.0001419
   0.0000019   0.0000019   0.0000020   0.0000020   0.0000019   0.0000019
   0.0000020   0.0000020
 TTTTTTTTTTTTTTTTTTTTTTTTTTTTTT MOQGAD      TELAPSE      671.62 TCPU      660.89
 TTTTTTTTTTTTTTTTTTTTTTTTTTTTTT SHELLXN     TELAPSE      723.59 TCPU      712.85
 TTTTTTTTTTTTTTTTTTTTTTTTTTTTTT MONMO3      TELAPSE      739.65 TCPU      728.91
 NUMERICALLY INTEGRATED DENSITY    132.0000673373    132.0000673635
 TTTTTTTTTTTTTTTTTTTTTTTTTTTTTT NUMDFT      TELAPSE      740.87 TCPU      730.13
 CYC   9 ETOT(AU) -1.842474973260E+03 DETOT -1.09E-04 tst  5.38E-06 PX  4.59E-03
 CYCLE  9 WAVE FUNCTION SAVED IN FORTRAN UNIT 79
 TTTTTTTTTTTTTTTTTTTTTTTTTTTTTT DIIS        TELAPSE      741.68 TCPU      730.93
 DIIS TEST: 0.12437E-03 AT SCF   CYCLE   9 - DIIS ACTIVE - HISTORY:     9 CYCLES
 TTTTTTTTTTTTTTTTTTTTTTTTTTTTTT FDIK        TELAPSE      743.60 TCPU      732.85
 SPIN LOCKING: NO ENERGY GAP COMPUTED
 TTTTTTTTTTTTTTTTTTTTTTTTTTTTTT PDIG        TELAPSE      744.22 TCPU      733.47
 CHARGE NORMALIZATION FACTOR   1.00000000
 TOTAL ATOMIC CHARGES:
  18.0108958  18.0108687  18.0108962  18.0108687  18.0108687  18.0110881
  18.0108687  18.0110881   7.4114545   7.4114545   7.4114541   7.4114541
   7.4119578   7.4119578   7.4119578   7.4119578   7.4114545   7.4119578
   7.4114541   7.4119578   7.4114545   7.4119578   7.4114541   7.4119578
   0.1656576   0.1656576   0.1656576   0.1656576   0.1656576   0.1656576
   0.1656576   0.1656576
 SUMMED SPIN DENSITY           0.00000000
 TOTAL ATOMIC SPINS  :
   0.5850304  -0.5849584   0.5850310  -0.5849584  -0.5849584   0.5849067
  -0.5849584   0.5849067  -0.0000141  -0.0000141  -0.0000141  -0.0000141
   0.0000074   0.0000074   0.0000074   0.0000074  -0.0000141   0.0000074
  -0.0000141   0.0000074  -0.0000141   0.0000074  -0.0000141   0.0000074
   0.0000015   0.0000015   0.0000015   0.0000015   0.0000015   0.0000015
   0.0000015   0.0000015
 TTTTTTTTTTTTTTTTTTTTTTTTTTTTTT MOQGAD      TELAPSE      744.25 TCPU      733.50
 TTTTTTTTTTTTTTTTTTTTTTTTTTTTTT SHELLXN     TELAPSE      796.48 TCPU      785.46
 TTTTTTTTTTTTTTTTTTTTTTTTTTTTTT MONMO3      TELAPSE      812.70 TCPU      801.69
 NUMERICALLY INTEGRATED DENSITY    132.0000673611    132.0000673945
 TTTTTTTTTTTTTTTTTTTTTTTTTTTTTT NUMDFT      TELAPSE      813.91 TCPU      802.90
 CYC  10 ETOT(AU) -1.842474989159E+03 DETOT -1.59E-05 tst  1.68E-07 PX  1.18E-03
 CYCLE 10 WAVE FUNCTION SAVED IN FORTRAN UNIT 79
 TTTTTTTTTTTTTTTTTTTTTTTTTTTTTT DIIS        TELAPSE      814.91 TCPU      803.85
 DIIS TEST: 0.19888E-04 AT SCF   CYCLE  10 - DIIS ACTIVE - HISTORY:    10 CYCLES
 TTTTTTTTTTTTTTTTTTTTTTTTTTTTTT FDIK        TELAPSE      817.05 TCPU      805.96
 SPIN LOCKING: NO ENERGY GAP COMPUTED
 TTTTTTTTTTTTTTTTTTTTTTTTTTTTTT PDIG        TELAPSE      817.68 TCPU      806.58
 CHARGE NORMALIZATION FACTOR   1.00000000
 TOTAL ATOMIC CHARGES:
  18.0108085  18.0107063  18.0108089  18.0107063  18.0107063  18.0105070
  18.0107063  18.0105070   7.4118761   7.4118761   7.4118756   7.4118756
   7.4118114   7.4118114   7.4118114   7.4118114   7.4118761   7.4118114
   7.4118756   7.4118114   7.4118761   7.4118114   7.4118756   7.4118114
   0.1656306   0.1656306   0.1656306   0.1656306   0.1656306   0.1656306
   0.1656306   0.1656306
 SUMMED SPIN DENSITY           0.00000000
 TOTAL ATOMIC SPINS  :
   0.5852820  -0.5852331   0.5852819  -0.5852331  -0.5852331   0.5852451
  -0.5852331   0.5852451   0.0000083   0.0000083   0.0000085   0.0000085
  -0.0000250  -0.0000250  -0.0000250  -0.0000250   0.0000083  -0.0000250
   0.0000085  -0.0000250   0.0000083  -0.0000250   0.0000085  -0.0000250
   0.0000014   0.0000014   0.0000014   0.0000014   0.0000014   0.0000014
   0.0000014   0.0000014
 TTTTTTTTTTTTTTTTTTTTTTTTTTTTTT MOQGAD      TELAPSE      817.71 TCPU      806.61
 TTTTTTTTTTTTTTTTTTTTTTTTTTTTTT SHELLXN     TELAPSE      870.54 TCPU      858.69
 TTTTTTTTTTTTTTTTTTTTTTTTTTTTTT MONMO3      TELAPSE      887.48 TCPU      875.39
 NUMERICALLY INTEGRATED DENSITY    132.0000673786    132.0000674069
 TTTTTTTTTTTTTTTTTTTTTTTTTTTTTT NUMDFT      TELAPSE      888.71 TCPU      876.61
 CYC  11 ETOT(AU) -1.842474991551E+03 DETOT -2.39E-06 tst  2.54E-08 PX  4.49E-04
 CYCLE 11 WAVE FUNCTION SAVED IN FORTRAN UNIT 79
 TTTTTTTTTTTTTTTTTTTTTTTTTTTTTT DIIS        TELAPSE      889.55 TCPU      877.41
 DIIS TEST: 0.17863E-05 AT SCF   CYCLE  11 - DIIS ACTIVE - HISTORY:    11 CYCLES
 TTTTTTTTTTTTTTTTTTTTTTTTTTTTTT FDIK        TELAPSE      891.63 TCPU      879.49
 SPIN LOCKING: NO ENERGY GAP COMPUTED
 TTTTTTTTTTTTTTTTTTTTTTTTTTTTTT PDIG        TELAPSE      892.26 TCPU      880.12
 CHARGE NORMALIZATION FACTOR   1.00000000
 TOTAL ATOMIC CHARGES:
  18.0106729  18.0106964  18.0106733  18.0106964  18.0106964  18.0107677
  18.0106964  18.0107677   7.4118249   7.4118249   7.4118244   7.4118244
   7.4118254   7.4118254   7.4118254   7.4118254   7.4118249   7.4118254
   7.4118244   7.4118254   7.4118249   7.4118254   7.4118244   7.4118254
   0.1656416   0.1656416   0.1656415   0.1656415   0.1656416   0.1656416
   0.1656415   0.1656415
 SUMMED SPIN DENSITY           0.00000000
 TOTAL ATOMIC SPINS  :
   0.5853606  -0.5853326   0.5853609  -0.5853326  -0.5853326   0.5853191
  -0.5853326   0.5853191  -0.0000011  -0.0000011  -0.0000011  -0.0000011
  -0.0000034  -0.0000034  -0.0000034  -0.0000034  -0.0000011  -0.0000034
  -0.0000011  -0.0000034  -0.0000011  -0.0000034  -0.0000011  -0.0000034
   0.0000008   0.0000008   0.0000008   0.0000008   0.0000008   0.0000008
   0.0000008   0.0000008
 TTTTTTTTTTTTTTTTTTTTTTTTTTTTTT MOQGAD      TELAPSE      892.29 TCPU      880.15
 TTTTTTTTTTTTTTTTTTTTTTTTTTTTTT SHELLXN     TELAPSE      944.47 TCPU      932.09
 TTTTTTTTTTTTTTTTTTTTTTTTTTTTTT MONMO3      TELAPSE      960.45 TCPU      948.07
 NUMERICALLY INTEGRATED DENSITY    132.0000673737    132.0000673996
 TTTTTTTTTTTTTTTTTTTTTTTTTTTTTT NUMDFT      TELAPSE      961.68 TCPU      949.29
 CYC  12 ETOT(AU) -1.842474991846E+03 DETOT -2.96E-07 tst  3.59E-09 PX  1.19E-04
 CYCLE 12 WAVE FUNCTION SAVED IN FORTRAN UNIT 79
 TTTTTTTTTTTTTTTTTTTTTTTTTTTTTT DIIS        TELAPSE      962.50 TCPU      950.10
 DIIS TEST: 0.11852E-06 AT SCF   CYCLE  12 - DIIS ACTIVE - HISTORY:    12 CYCLES
 TTTTTTTTTTTTTTTTTTTTTTTTTTTTTT FDIK        TELAPSE      964.72 TCPU      952.31
 SPIN LOCKING: NO ENERGY GAP COMPUTED
 TTTTTTTTTTTTTTTTTTTTTTTTTTTTTT PDIG        TELAPSE      965.35 TCPU      952.94
 CHARGE NORMALIZATION FACTOR   1.00000000
 TOTAL ATOMIC CHARGES:
  18.0107241  18.0107107  18.0107244  18.0107107  18.0107107  18.0106898
  18.0107107  18.0106898   7.4118256   7.4118256   7.4118249   7.4118249
   7.4118252   7.4118252   7.4118252   7.4118252   7.4118256   7.4118252
   7.4118249   7.4118252   7.4118256   7.4118252   7.4118249   7.4118252
   0.1656407   0.1656407   0.1656407   0.1656407   0.1656407   0.1656407
   0.1656407   0.1656407
 SUMMED SPIN DENSITY          -0.00000000
 TOTAL ATOMIC SPINS  :
   0.5853709  -0.5853589   0.5853712  -0.5853589  -0.5853589   0.5853580
  -0.5853589   0.5853580  -0.0000000  -0.0000000  -0.0000001  -0.0000001
  -0.0000031  -0.0000031  -0.0000031  -0.0000031  -0.0000000  -0.0000031
  -0.0000001  -0.0000031  -0.0000000  -0.0000031  -0.0000001  -0.0000031
   0.0000004   0.0000004   0.0000004   0.0000004   0.0000004   0.0000004
   0.0000004   0.0000004
 TTTTTTTTTTTTTTTTTTTTTTTTTTTTTT MOQGAD      TELAPSE      965.38 TCPU      952.97
 TTTTTTTTTTTTTTTTTTTTTTTTTTTTTT SHELLXN     TELAPSE     1017.38 TCPU     1004.87
 TTTTTTTTTTTTTTTTTTTTTTTTTTTTTT MONMO3      TELAPSE     1033.53 TCPU     1020.93
 NUMERICALLY INTEGRATED DENSITY    132.0000673738    132.0000673987
 TTTTTTTTTTTTTTTTTTTTTTTTTTTTTT NUMDFT      TELAPSE     1034.76 TCPU     1022.13
 CYC  13 ETOT(AU) -1.842474991885E+03 DETOT -3.91E-08 tst  1.02E-09 PX  5.11E-05
 CYCLE 13 WAVE FUNCTION SAVED IN FORTRAN UNIT 79
 TTTTTTTTTTTTTTTTTTTTTTTTTTTTTT DIIS        TELAPSE     1035.57 TCPU     1022.92
 DIIS TEST: 0.16897E-07 AT SCF   CYCLE  13 - DIIS ACTIVE - HISTORY:    13 CYCLES
 TTTTTTTTTTTTTTTTTTTTTTTTTTTTTT FDIK        TELAPSE     1037.58 TCPU     1024.93
 SPIN LOCKING: NO ENERGY GAP COMPUTED
 TTTTTTTTTTTTTTTTTTTTTTTTTTTTTT PDIG        TELAPSE     1038.21 TCPU     1025.55
 CHARGE NORMALIZATION FACTOR   1.00000000
 TOTAL ATOMIC CHARGES:
  18.0107023  18.0107054  18.0107027  18.0107054  18.0107054  18.0107087
  18.0107054  18.0107087   7.4118278   7.4118278   7.4118271   7.4118271
   7.4118272   7.4118272   7.4118272   7.4118272   7.4118278   7.4118272
   7.4118271   7.4118272   7.4118278   7.4118272   7.4118271   7.4118272
   0.1656399   0.1656399   0.1656399   0.1656399   0.1656399   0.1656399
   0.1656399   0.1656399
 SUMMED SPIN DENSITY          -0.00000000
 TOTAL ATOMIC SPINS  :
   0.5853728  -0.5853660   0.5853732  -0.5853660  -0.5853660   0.5853653
  -0.5853660   0.5853653  -0.0000009  -0.0000009  -0.0000010  -0.0000010
  -0.0000008  -0.0000008  -0.0000008  -0.0000008  -0.0000009  -0.0000008
  -0.0000010  -0.0000008  -0.0000009  -0.0000008  -0.0000010  -0.0000008
   0.0000002   0.0000002   0.0000002   0.0000002   0.0000002   0.0000002
   0.0000002   0.0000002
 TTTTTTTTTTTTTTTTTTTTTTTTTTTTTT MOQGAD      TELAPSE     1038.24 TCPU     1025.58
 TTTTTTTTTTTTTTTTTTTTTTTTTTTTTT SHELLXN     TELAPSE     1090.45 TCPU     1077.50
 TTTTTTTTTTTTTTTTTTTTTTTTTTTTTT MONMO3      TELAPSE     1106.59 TCPU     1093.58
 NUMERICALLY INTEGRATED DENSITY    132.0000673734    132.0000673977
 TTTTTTTTTTTTTTTTTTTTTTTTTTTTTT NUMDFT      TELAPSE     1107.80 TCPU     1094.79
 CYC  14 ETOT(AU) -1.842474991874E+03 DETOT  1.14E-08 tst  1.96E-10 PX  2.69E-05
 CYCLE 14 WAVE FUNCTION SAVED IN FORTRAN UNIT 79
 TTTTTTTTTTTTTTTTTTTTTTTTTTTTTT DIIS        TELAPSE     1108.63 TCPU     1095.56
 DIIS TEST: 0.14972E-08 AT SCF   CYCLE  14 - DIIS ACTIVE - HISTORY:    14 CYCLES
 TTTTTTTTTTTTTTTTTTTTTTTTTTTTTT FDIK        TELAPSE     1111.00 TCPU     1097.93
 SPIN LOCKING: NO ENERGY GAP COMPUTED
 TTTTTTTTTTTTTTTTTTTTTTTTTTTTTT PDIG        TELAPSE     1111.62 TCPU     1098.55
 CHARGE NORMALIZATION FACTOR   1.00000000
 TOTAL ATOMIC CHARGES:
  18.0107057  18.0107068  18.0107062  18.0107068  18.0107068  18.0107060
  18.0107068  18.0107060   7.4118270   7.4118270   7.4118263   7.4118263
   7.4118269   7.4118269   7.4118269   7.4118269   7.4118270   7.4118269
   7.4118263   7.4118269   7.4118270   7.4118269   7.4118263   7.4118269
   0.1656400   0.1656400   0.1656401   0.1656401   0.1656400   0.1656400
   0.1656401   0.1656401
 SUMMED SPIN DENSITY          -0.00000000
 TOTAL ATOMIC SPINS  :
   0.5853677  -0.5853657   0.5853680  -0.5853657  -0.5853657   0.5853657
  -0.5853657   0.5853657  -0.0000004  -0.0000004  -0.0000004  -0.0000004
  -0.0000002  -0.0000002  -0.0000002  -0.0000002  -0.0000004  -0.0000002
  -0.0000004  -0.0000002  -0.0000004  -0.0000002  -0.0000004  -0.0000002
   0.0000001   0.0000001   0.0000001   0.0000001   0.0000001   0.0000001
   0.0000001   0.0000001
 TTTTTTTTTTTTTTTTTTTTTTTTTTTTTT MOQGAD      TELAPSE     1111.65 TCPU     1098.58
 TTTTTTTTTTTTTTTTTTTTTTTTTTTTTT SHELLXN     TELAPSE     1163.76 TCPU     1150.46
 TTTTTTTTTTTTTTTTTTTTTTTTTTTTTT MONMO3      TELAPSE     1179.88 TCPU     1166.58
 NUMERICALLY INTEGRATED DENSITY    132.0000673731    132.0000673971
 TTTTTTTTTTTTTTTTTTTTTTTTTTTTTT NUMDFT      TELAPSE     1181.25 TCPU     1167.96
 CYC  15 ETOT(AU) -1.842474991877E+03 DETOT -3.09E-09 tst  2.29E-11 PX  1.06E-05
 CYCLE 15 WAVE FUNCTION SAVED IN FORTRAN UNIT 79
 TTTTTTTTTTTTTTTTTTTTTTTTTTTTTT DIIS        TELAPSE     1182.21 TCPU     1168.91
 DIIS TEST: 0.66848E-10 AT SCF   CYCLE  15 - DIIS ACTIVE - HISTORY:    15 CYCLES
 TTTTTTTTTTTTTTTTTTTTTTTTTTTTTT FDIK        TELAPSE     1184.29 TCPU     1170.99
 SPIN LOCKING: NO ENERGY GAP COMPUTED
 TTTTTTTTTTTTTTTTTTTTTTTTTTTTTT PDIG        TELAPSE     1184.91 TCPU     1171.61
 CHARGE NORMALIZATION FACTOR   1.00000000
 TOTAL ATOMIC CHARGES:
  18.0107060  18.0107059  18.0107064  18.0107059  18.0107059  18.0107076
  18.0107059  18.0107076   7.4118270   7.4118270   7.4118263   7.4118263
   7.4118269   7.4118269   7.4118269   7.4118269   7.4118270   7.4118269
   7.4118263   7.4118269   7.4118270   7.4118269   7.4118263   7.4118269
   0.1656400   0.1656400   0.1656400   0.1656400   0.1656400   0.1656400
   0.1656400   0.1656400
 SUMMED SPIN DENSITY          -0.00000000
 TOTAL ATOMIC SPINS  :
   0.5853658  -0.5853652   0.5853661  -0.5853652  -0.5853652   0.5853652
  -0.5853652   0.5853652  -0.0000002  -0.0000002  -0.0000002  -0.0000002
   0.0000000   0.0000000   0.0000000   0.0000000  -0.0000002   0.0000000
  -0.0000002   0.0000000  -0.0000002   0.0000000  -0.0000002   0.0000000
   0.0000000   0.0000000   0.0000000   0.0000000   0.0000000   0.0000000
   0.0000000   0.0000000
 TTTTTTTTTTTTTTTTTTTTTTTTTTTTTT MOQGAD      TELAPSE     1184.94 TCPU     1171.64
 TTTTTTTTTTTTTTTTTTTTTTTTTTTTTT SHELLXN     TELAPSE     1236.79 TCPU     1223.52
 TTTTTTTTTTTTTTTTTTTTTTTTTTTTTT MONMO3      TELAPSE     1253.20 TCPU     1239.93
 NUMERICALLY INTEGRATED DENSITY    132.0000673730    132.0000673969
 TTTTTTTTTTTTTTTTTTTTTTTTTTTTTT NUMDFT      TELAPSE     1254.44 TCPU     1241.17
 CYC  16 ETOT(AU) -1.842474991877E+03 DETOT  2.61E-10 tst  2.24E-12 PX  3.14E-06
 CYCLE 16 WAVE FUNCTION SAVED IN FORTRAN UNIT 79
 TTTTTTTTTTTTTTTTTTTTTTTTTTTTTT DIIS        TELAPSE     1255.26 TCPU     1241.95
 DIIS TEST: 0.22778E-10 AT SCF   CYCLE  16 - DIIS ACTIVE - HISTORY:    16 CYCLES
 TTTTTTTTTTTTTTTTTTTTTTTTTTTTTT FDIK        TELAPSE     1257.11 TCPU     1243.79
 SPIN LOCKING: NO ENERGY GAP COMPUTED
 TTTTTTTTTTTTTTTTTTTTTTTTTTTTTT PDIG        TELAPSE     1257.73 TCPU     1244.41
 CHARGE NORMALIZATION FACTOR   1.00000000
 TOTAL ATOMIC CHARGES:
  18.0107054  18.0107065  18.0107058  18.0107065  18.0107065  18.0107071
  18.0107065  18.0107071   7.4118270   7.4118270   7.4118263   7.4118263
   7.4118269   7.4118269   7.4118269   7.4118269   7.4118270   7.4118269
   7.4118263   7.4118269   7.4118270   7.4118269   7.4118263   7.4118269
   0.1656400   0.1656400   0.1656400   0.1656400   0.1656400   0.1656400
   0.1656400   0.1656400
 SUMMED SPIN DENSITY          -0.00000000
 TOTAL ATOMIC SPINS  :
   0.5853652  -0.5853649   0.5853656  -0.5853649  -0.5853649   0.5853650
  -0.5853649   0.5853650  -0.0000002  -0.0000002  -0.0000002  -0.0000002
   0.0000000   0.0000000   0.0000000   0.0000000  -0.0000002   0.0000000
  -0.0000002   0.0000000  -0.0000002   0.0000000  -0.0000002   0.0000000
   0.0000000   0.0000000   0.0000000   0.0000000   0.0000000   0.0000000
   0.0000000   0.0000000
 TTTTTTTTTTTTTTTTTTTTTTTTTTTTTT MOQGAD      TELAPSE     1257.76 TCPU     1244.44
 TTTTTTTTTTTTTTTTTTTTTTTTTTTTTT SHELLXN     TELAPSE     1309.78 TCPU     1296.42
 TTTTTTTTTTTTTTTTTTTTTTTTTTTTTT MONMO3      TELAPSE     1325.94 TCPU     1312.58
 NUMERICALLY INTEGRATED DENSITY    132.0000673730    132.0000673969
 TTTTTTTTTTTTTTTTTTTTTTTTTTTTTT NUMDFT      TELAPSE     1327.15 TCPU     1313.79
 CYC  17 ETOT(AU) -1.842474991877E+03 DETOT -6.68E-11 tst  4.46E-13 PX  1.15E-06
 CYCLE 17 WAVE FUNCTION SAVED IN FORTRAN UNIT 79
 TTTTTTTTTTTTTTTTTTTTTTTTTTTTTT DIIS        TELAPSE     1327.96 TCPU     1314.53
 DIIS TEST: 0.12988E-10 AT SCF   CYCLE  17 - DIIS ACTIVE - HISTORY:    17 CYCLES
 TTTTTTTTTTTTTTTTTTTTTTTTTTTTTT FDIK        TELAPSE     1329.56 TCPU     1316.10
 SPIN LOCKING: NO ENERGY GAP COMPUTED
 TTTTTTTTTTTTTTTTTTTTTTTTTTTTTT PDIG        TELAPSE     1330.40 TCPU     1316.94
 CHARGE NORMALIZATION FACTOR   1.00000000
 TOTAL ATOMIC CHARGES:
  18.0107055  18.0107064  18.0107060  18.0107064  18.0107064  18.0107072
  18.0107064  18.0107072   7.4118270   7.4118270   7.4118263   7.4118263
   7.4118269   7.4118269   7.4118269   7.4118269   7.4118270   7.4118269
   7.4118263   7.4118269   7.4118270   7.4118269   7.4118263   7.4118269
   0.1656400   0.1656400   0.1656400   0.1656400   0.1656400   0.1656400
   0.1656400   0.1656400
 SUMMED SPIN DENSITY          -0.00000000
 TOTAL ATOMIC SPINS  :
   0.5853648  -0.5853647   0.5853652  -0.5853647  -0.5853647   0.5853648
  -0.5853647   0.5853648  -0.0000001  -0.0000001  -0.0000001  -0.0000001
  -0.0000000  -0.0000000  -0.0000000  -0.0000000  -0.0000001  -0.0000000
  -0.0000001  -0.0000000  -0.0000001  -0.0000000  -0.0000001  -0.0000000
  -0.0000000  -0.0000000   0.0000000   0.0000000  -0.0000000  -0.0000000
   0.0000000   0.0000000
 TTTTTTTTTTTTTTTTTTTTTTTTTTTTTT MOQGAD      TELAPSE     1330.46 TCPU     1317.00
 TTTTTTTTTTTTTTTTTTTTTTTTTTTTTT SHELLXN     TELAPSE     1382.47 TCPU     1368.97
 +++ ENERGIES IN A.U. +++
 ::: EXT EL-POLE                                  -9.3479256620479E+03
 ::: EXT EL-SPHEROPOLE                             4.5344348297444E+01
 ::: BIELET ZONE E-E                               1.0184004825152E+04
 ::: TOTAL E-E                                     8.8142351140162E+02
 ::: TOTAL E-N + N-E                              -2.9274279432887E+03
 ::: TOTAL N-N                                    -8.2862678999312E+02
 ::: KINETIC ENERGY                                1.1952057701980E+03
 ::: PSEUDO TOTAL   ENERGY                        -1.6794254516822E+03
 ::: VIRIAL COEFFICIENT                            8.3155415630408E-01
 TTTTTTTTTTTTTTTTTTTTTTTTTTTTTT MONMO3      TELAPSE     1398.53 TCPU     1385.03
 NUMERICALLY INTEGRATED DENSITY    132.0000673730    132.0000673969
 TTTTTTTTTTTTTTTTTTTTTTTTTTTTTT NUMDFT      TELAPSE     1399.75 TCPU     1386.24
 CYC  18 ETOT(AU) -1.842474991877E+03 DETOT  1.06E-10 tst  4.79E-13 PX  1.15E-06

 == SCF ENDED - CONVERGENCE ON ENERGY      E(AU) -1.8424749918769E+03 CYCLES  18


 ENERGY EXPRESSION=HARTREE+FOCK EXCH*0.25000+(PBE        EXCH)*0.75000+PBE        CORR

 FINITE TEMPERATURE DFT CALCULATION 
 TEMPERATURE      (T)    1.000000000000E-13 HARTREE 
 ENERGY           (E)   -1.842474991877E+03
 FREE ENERGY      (F)   -1.842474991877E+03
 ELECTRON ENTROPY (S)    0.000000000000E+00
 (E(T)+F(T))/2    (E0)  -1.842474991877E+03


 TOTAL ENERGY(DFT)(AU)( 18) -1.8424749918769E+03 DE 1.1E-10 tester 4.8E-13
 TTTTTTTTTTTTTTTTTTTTTTTTTTTTTT EDFT        TELAPSE     1399.76 TCPU     1386.25
 EIGENVECTORS IN FORTRAN UNIT  8
 TTTTTTTTTTTTTTTTTTTTTTTTTTTTTT END         TELAPSE     1400.81 TCPU     1387.26
 EEEEEEEEEE TERMINATION  DATE 24 03 2018 TIME 21:15:03.3
NODE    0 CPU TIME =      1387.260
NODE    1 CPU TIME =      1390.534
NODE    2 CPU TIME =      1386.335
NODE    3 CPU TIME =      1385.943
NODE    4 CPU TIME =      1391.958
NODE    5 CPU TIME =      1390.607
NODE    6 CPU TIME =      1388.306
NODE    7 CPU TIME =      1392.144
NODE    8 CPU TIME =      1390.748
NODE    9 CPU TIME =      1388.884
NODE   10 CPU TIME =      1384.345
NODE   11 CPU TIME =      1392.452
NODE   12 CPU TIME =      1390.113
NODE   13 CPU TIME =      1393.495
NODE   14 CPU TIME =      1384.834
NODE   15 CPU TIME =      1394.731
NODE   16 CPU TIME =      1388.548
NODE   17 CPU TIME =      1389.196
NODE   18 CPU TIME =      1394.139
NODE   19 CPU TIME =      1388.951
NODE   20 CPU TIME =      1390.088
NODE   21 CPU TIME =      1388.791
NODE   22 CPU TIME =      1389.885
NODE   23 CPU TIME =      1392.364
NODE   24 CPU TIME =      1380.456
NODE   25 CPU TIME =      1393.076
NODE   26 CPU TIME =      1390.483
NODE   27 CPU TIME =      1391.089
    TOTAL CPU TIME =     38909.754
