--------------------------------------------------------------------------
WARNING: No preset parameters were found for the device that Open MPI
detected:

  Local host:            golub330
  Device name:           mlx4_0
  Device vendor ID:      0x02c9
  Device vendor part ID: 4099

Default device parameters will be used, which may result in lower
performance.  You can edit any of the files specified by the
btl_openib_device_param_files MCA parameter to set values for your
device.

NOTE: You can turn off this warning by setting the MCA parameter
      btl_openib_warn_no_device_params_found to 0.
--------------------------------------------------------------------------
 PROCESS            9  OF           24  WORKING
 PROCESS           16  OF           24  WORKING
 PROCESS            3  OF           24  WORKING
 PROCESS           22  OF           24  WORKING
 PROCESS            7  OF           24  WORKING
 PROCESS           17  OF           24  WORKING
 PROCESS            5  OF           24  WORKING
 PROCESS            0  OF           24  WORKING
 PROCESS           12  OF           24  WORKING
 PROCESS           14  OF           24  WORKING
 PROCESS           11  OF           24  WORKING
 PROCESS           23  OF           24  WORKING
 PROCESS           18  OF           24  WORKING
 PROCESS           19  OF           24  WORKING
 PROCESS           13  OF           24  WORKING
 PROCESS            4  OF           24  WORKING
 PROCESS           21  OF           24  WORKING
 PROCESS            1  OF           24  WORKING
 PROCESS            2  OF           24  WORKING
 PROCESS           10  OF           24  WORKING
 PROCESS            8  OF           24  WORKING
 PROCESS           15  OF           24  WORKING
 PROCESS           20  OF           24  WORKING

         
 *******************************************************************************
 *                                                                             *
 *                               CRYSTAL17                                     *
 *                      public : 1.0.1 - Jun 21st, 2017                        *
 *                       HTTP://WWW.CRYSTAL.UNITO.IT                           *
 *                                                                             *
 *                              MAIN AUTHORS                                   *
 *                                                                             *
 *  R. DOVESI(1,11), V.R. SAUNDERS(2), C. ROETTI(1,11), R. ORLANDO(1,11),      *
 *  C.M. ZICOVICH-WILSON(1,3), F. PASCALE(4), B. CIVALLERI(1,11),              *
 *  K. DOLL(5), N.M. HARRISON(2,6), I.J. BUSH(7), Ph. D'ARCO(8),               *
 *  M. LLUNELL(9), M. CAUSA'(10), Y. NOEL(8), L. MASCHIO(1,11), A. ERBA(1,11)  *
 *  M. RE'RAT(14), S. CASASSA(1,11)                                            *
 *                                                                             *
 *        CONTRIBUTIONS TO THE CODE HAVE ALSO BEEN GIVEN BY                    *
 *                                                                             *
 *  M. FERRABONE(1,11), M. DE LA PIERRE(1,11), M. FERRERO(1,11),               *
 *  J. BAIMA(1,11), E. ALBANESE(1,11), M.F. PEINTINGER(12), R. BAST(13),       *
 *  B. KIRTMAN(15), V. LACIVITA(1,11), R. DEMICHELIS(1,16)                     *
 *  G. BRANDEBURG(17), S. SALUSTRO(1,11), G. SANSONE(1,11)                     *
 *  M.T. RUGGIERO(18)                                                          *
 *                                                                             *
 * (1) THEORETICAL CHEMISTRY GROUP - UNIVERSITA' DI TORINO - TORINO (ITALY)    *

 * (2) COMPUTATIONAL SCIENCE & ENGINEERING DEPARTMENT - STFC DARESBURY (UK)    *
 * (3) UNIVERSIDAD AUTONOMA DEL ESTADO DE MORELOS - CUERNAVACA (MEXICO)        *
 * (4) UNIVERSITE' DE LORRAINE - NANCY (FRANCE)                                *
 * (5) UNIVERSITAET STUTTGART- STUTTGART (GERMANY)                             *
 * (6) IMPERIAL COLLEGE - LONDON (UK)                                          *
 * (7) OXFORD E-RESEARCH CENTRE - OXFORD (UK)                                  *
 * (8) UPMC - SORBONNE UNIVERSITES - PARIS (FRANCE)                            *
 * (9) UNIVERSIDAD DE BARCELONA - BARCELONA (SPAIN)                            *
 *(10) UNIVERSITA' DI NAPOLI "FEDERICO II" - NAPOLI (ITALY)                    *
 *(11) NIS - NANOSTRUCTURED INTERFACES AND SURFACES - TORINO (ITALY)           *
 *(12) MPI FUER CHEMISCHE ENERGIEKONVERSION - MUELHEIM AN DER RUHR (GERMANY)   *
 *(13) UNIVERSITY OF TROMSO - TROMSO (NORWAY)                                  *
 *(14) UNIVERSITE' DE PAU ET DES PAYS DE L'ADOUR - PAU (FRANCE)                *
 *(15) UNIVERSITY OF CALIFORNIA SANTA BARBARA - SANTA BARBARA (USA)            *
 *(16) CURTIN UNIVERSITY - PERTH (AUSTRALIA)                                   *
 *(17) UNIVERSITY COLLEGE LONDON - LONDON (UK)                                 *
 *(18) CAMBRIDGE UNIVERSITY - CAMBRIDGE (UK)                                   *
 *                                                                             *
 *******************************************************************************
 EEEEEEEEEE STARTING  DATE 24 03 2018 TIME 16:10:33.0
 Generated by CrystalWriter                                                      
 PROCESS            6  OF           24  WORKING

 CRYSTAL CALCULATION
 (INPUT ACCORDING TO THE INTERNATIONAL TABLES FOR X-RAY CRYSTALLOGRAPHY)
 CRYSTAL FAMILY                       :  TETRAGONAL  
 CRYSTAL CLASS  (GROTH - 1921)        :  DITETRAGONAL DIPYRAMIDAL             

 SPACE GROUP (CENTROSYMMETRIC)        :  P 4/M M M       

 LATTICE PARAMETERS  (ANGSTROMS AND DEGREES) - CONVENTIONAL CELL
        A           B           C        ALPHA        BETA       GAMMA
     3.92785     3.92785     3.43380    90.00000    90.00000    90.00000


 NUMBER OF IRREDUCIBLE ATOMS IN THE CONVENTIONAL CELL:    4

 INPUT COORDINATES

 ATOM AT. N.              COORDINATES
   1 229     0.000000000000E+00  0.000000000000E+00  0.000000000000E+00
   2 208     0.000000000000E+00  5.000000000000E-01  0.000000000000E+00
   3 208     5.000000000000E-01  0.000000000000E+00  0.000000000000E+00
   4 238     5.000000000000E-01  5.000000000000E-01  5.000000000000E-01

 *******************************************************************************

 << INFORMATION >>: FROM NOW ON, ALL COORDINATES REFER TO THE PRIMITIVE CELL

 *******************************************************************************

 LATTICE PARAMETERS  (ANGSTROMS AND DEGREES) - PRIMITIVE CELL
       A          B          C        ALPHA      BETA     GAMMA        VOLUME
    3.92785    3.92785    3.43380    90.00000  90.00000  90.00000     52.976686

 INPUT LIST - ATOM N.   3 NOT IRREDUCIBLE

 COORDINATES OF THE EQUIVALENT ATOMS (FRACTIONAL UNITS)

 N. ATOM EQUIV AT. N.          X                  Y                  Z

   1   1   1  229 CU    0.00000000000E+00  0.00000000000E+00  0.00000000000E+00

   2   2   1  208 O     0.00000000000E+00 -5.00000000000E-01  0.00000000000E+00
   3   2   2  208 O     5.00000000000E-01  0.00000000000E+00  0.00000000000E+00


 NUMBER OF SYMMETRY OPERATORS         :   16
 *******************************************************************************
 * GEOMETRY EDITING - INPUT COORDINATES ARE GIVEN IN ANGSTROM         
 *******************************************************************************

 GEOMETRY NOW FULLY CONSISTENT WITH THE GROUP

 NO SYMMOPS WITH FINITE TRANSLATIONAL COMPONENT

 *******************************************************************************
 * SUPERCELL OPTION
 *******************************************************************************

 INFORMATION **** GEXPAD **** SUPERCELL VOLUME NEGATIVE ? - SIGN OF EXPANSION MATRIX REVERSED

        EXPANSION MATRIX OF PRIMITIVE CELL
 E1    -2.000    -2.000     0.000
 E2     2.000    -2.000     0.000
 E3     0.000     0.000     1.000

 NUMBER OF ATOMS PER SUPERCELL    32

        DIRECT LATTICE VECTORS COMPONENTS (ANGSTROM)
 B1    -7.856    -7.856     0.000
 B2     7.856    -7.856     0.000
 B3     0.000     0.000     3.434

 LATTICE PARAMETERS  (ANGSTROM AND DEGREES)
       A          B          C         ALPHA     BETA     GAMMA        VOLUME
   11.10964   11.10964    3.43380    90.00000  90.00000  90.00000    423.813486


 **** ATOMS BELONGING TO THE SUPERCELL
 LABEL AT.NO.      COORDINATES (ANGSTROM AND FRACTIONAL)
     1   229     7.8557     0.0000     0.0000    -0.5000     0.5000     0.0000
     2   229     0.0000    -3.9278     0.0000     0.2500     0.2500     0.0000
     3   229     0.0000     0.0000     0.0000     0.0000     0.0000     0.0000
     4   229     0.0000     3.9278     0.0000    -0.2500    -0.2500     0.0000
     5   229    -3.9279     0.0000     0.0000     0.2500    -0.2500     0.0000
     6   229     3.9278    -3.9278     0.0000     0.0000     0.5000     0.0000
     7   229     3.9278     0.0000     0.0000    -0.2500     0.2500     0.0000
     8   229     3.9278     3.9278     0.0000    -0.5000     0.0000     0.0000
     9   208    -0.0000     5.8918     0.0000    -0.3750    -0.3750     0.0000
    10   208    -0.0000    -5.8918     0.0000     0.3750     0.3750     0.0000
    11   208     0.0000    -1.9639     0.0000     0.1250     0.1250     0.0000
    12   208     0.0000     1.9639     0.0000    -0.1250    -0.1250     0.0000
    13   208    -3.9279    -1.9639     0.0000     0.3750    -0.1250     0.0000
    14   208    -3.9279     1.9639     0.0000     0.1250    -0.3750     0.0000
    15   208     3.9278    -1.9639     0.0000    -0.1250     0.3750     0.0000
    16   208     3.9278     1.9639     0.0000    -0.3750     0.1250     0.0000
    17   208     5.8918     0.0000     0.0000    -0.3750     0.3750     0.0000
    18   208    -1.9639    -3.9278     0.0000     0.3750     0.1250     0.0000
    19   208    -1.9639     0.0000     0.0000     0.1250    -0.1250     0.0000
    20   208    -1.9639     3.9278     0.0000    -0.1250    -0.3750     0.0000
    21   208    -5.8918     0.0000     0.0000     0.3750    -0.3750     0.0000
    22   208     1.9639    -3.9278     0.0000     0.1250     0.3750     0.0000
    23   208     1.9639     0.0000     0.0000    -0.1250     0.1250     0.0000
    24   208     1.9639     3.9278     0.0000    -0.3750    -0.1250     0.0000
    25   238     5.8918    -1.9639     1.7169    -0.2500     0.5000     0.5000
    26   238     5.8918     1.9639     1.7169    -0.5000     0.2500     0.5000
    27   238    -1.9639    -1.9639     1.7169     0.2500     0.0000     0.5000
    28   238    -1.9639     1.9639     1.7169     0.0000    -0.2500     0.5000
    29   238     1.9639     5.8918     1.7169    -0.5000    -0.2500     0.5000
    30   238     1.9639    -5.8918     1.7169     0.2500     0.5000     0.5000
    31   238     1.9639    -1.9639     1.7169     0.0000     0.2500     0.5000
    32   238     1.9639     1.9639     1.7169    -0.2500     0.0000     0.5000

 **************************** SUPERCELL GENERATED ****************************
 *********************************************************************
                        ATOMIC SITE SYMMETRIES
 *********************************************************************


 ATOM   1 ATOMIC NUMBER 229 - NUMBER OF SYMMOPS WHICH DO NOT MOVE THE ATOM  16
 SEQUENCE NUMBERS OF THE SYMMOPS
    1    2    3    4    5    6    7    8    9   10   11   12   13   14   15
   16
 NO EQUIVALENT ATOMS


 ATOM   2 ATOMIC NUMBER 229 - NUMBER OF SYMMOPS WHICH DO NOT MOVE THE ATOM   4
 SEQUENCE NUMBERS OF THE SYMMOPS
    1    4   10   11
 NUMBER OF ATOMS EQUIVALENT BY SYMMETRY    3
 SEQUENCE NUMBERS OF THESE ATOMS
    4    7    5
 SEQUENCE NUMBERS OF THE CORRESPONDING SYMMOPS
    2    5    6


 ATOM   3 ATOMIC NUMBER 229 - NUMBER OF SYMMOPS WHICH DO NOT MOVE THE ATOM  16
 SEQUENCE NUMBERS OF THE SYMMOPS
    1    2    3    4    5    6    7    8    9   10   11   12   13   14   15
   16
 NO EQUIVALENT ATOMS


 ATOM   4 ATOMIC NUMBER 229 - NUMBER OF SYMMOPS WHICH DO NOT MOVE THE ATOM   4
 SEQUENCE NUMBERS OF THE SYMMOPS
    1    4   10   11
 NUMBER OF ATOMS EQUIVALENT BY SYMMETRY    3
 SEQUENCE NUMBERS OF THESE ATOMS
    2    5    7
 SEQUENCE NUMBERS OF THE CORRESPONDING SYMMOPS
    2    5    6


 ATOM   5 ATOMIC NUMBER 229 - NUMBER OF SYMMOPS WHICH DO NOT MOVE THE ATOM   4
 SEQUENCE NUMBERS OF THE SYMMOPS
    1    3   10   12
 NUMBER OF ATOMS EQUIVALENT BY SYMMETRY    3
 SEQUENCE NUMBERS OF THESE ATOMS
    7    4    2
 SEQUENCE NUMBERS OF THE CORRESPONDING SYMMOPS
    2    5    6


 ATOM   6 ATOMIC NUMBER 229 - NUMBER OF SYMMOPS WHICH DO NOT MOVE THE ATOM   8
 SEQUENCE NUMBERS OF THE SYMMOPS
    1    2    5    6    9   10   13   14
 NUMBER OF ATOMS EQUIVALENT BY SYMMETRY    1
 SEQUENCE NUMBERS OF THESE ATOMS
    8
 SEQUENCE NUMBERS OF THE CORRESPONDING SYMMOPS
    3


 ATOM   7 ATOMIC NUMBER 229 - NUMBER OF SYMMOPS WHICH DO NOT MOVE THE ATOM   4
 SEQUENCE NUMBERS OF THE SYMMOPS
    1    3   10   12
 NUMBER OF ATOMS EQUIVALENT BY SYMMETRY    3
 SEQUENCE NUMBERS OF THESE ATOMS
    5    2    4
 SEQUENCE NUMBERS OF THE CORRESPONDING SYMMOPS
    2    5    6


 ATOM   8 ATOMIC NUMBER 229 - NUMBER OF SYMMOPS WHICH DO NOT MOVE THE ATOM   8
 SEQUENCE NUMBERS OF THE SYMMOPS
    1    2    5    6    9   10   13   14
 NUMBER OF ATOMS EQUIVALENT BY SYMMETRY    1
 SEQUENCE NUMBERS OF THESE ATOMS
    6
 SEQUENCE NUMBERS OF THE CORRESPONDING SYMMOPS
    3


 ATOM   9 ATOMIC NUMBER 208 - NUMBER OF SYMMOPS WHICH DO NOT MOVE THE ATOM   4
 SEQUENCE NUMBERS OF THE SYMMOPS
    1    4   10   11
 NUMBER OF ATOMS EQUIVALENT BY SYMMETRY    3
 SEQUENCE NUMBERS OF THESE ATOMS
   10   21   17
 SEQUENCE NUMBERS OF THE CORRESPONDING SYMMOPS
    2    5    6


 ATOM  10 ATOMIC NUMBER 208 - NUMBER OF SYMMOPS WHICH DO NOT MOVE THE ATOM   4
 SEQUENCE NUMBERS OF THE SYMMOPS
    1    4   10   11
 NUMBER OF ATOMS EQUIVALENT BY SYMMETRY    3
 SEQUENCE NUMBERS OF THESE ATOMS
    9   17   21
 SEQUENCE NUMBERS OF THE CORRESPONDING SYMMOPS
    2    5    6


 ATOM  11 ATOMIC NUMBER 208 - NUMBER OF SYMMOPS WHICH DO NOT MOVE THE ATOM   4
 SEQUENCE NUMBERS OF THE SYMMOPS
    1    4   10   11
 NUMBER OF ATOMS EQUIVALENT BY SYMMETRY    3
 SEQUENCE NUMBERS OF THESE ATOMS
   12   23   19
 SEQUENCE NUMBERS OF THE CORRESPONDING SYMMOPS
    2    5    6


 ATOM  12 ATOMIC NUMBER 208 - NUMBER OF SYMMOPS WHICH DO NOT MOVE THE ATOM   4
 SEQUENCE NUMBERS OF THE SYMMOPS
    1    4   10   11
 NUMBER OF ATOMS EQUIVALENT BY SYMMETRY    3
 SEQUENCE NUMBERS OF THESE ATOMS
   11   19   23
 SEQUENCE NUMBERS OF THE CORRESPONDING SYMMOPS
    2    5    6


 ATOM  13 ATOMIC NUMBER 208 - NUMBER OF SYMMOPS WHICH DO NOT MOVE THE ATOM   2
 SEQUENCE NUMBERS OF THE SYMMOPS
    1   10
 NUMBER OF ATOMS EQUIVALENT BY SYMMETRY    7
 SEQUENCE NUMBERS OF THESE ATOMS
   16   14   15   24   18   20   22
 SEQUENCE NUMBERS OF THE CORRESPONDING SYMMOPS
    2    3    4    5    6    7    8


 ATOM  14 ATOMIC NUMBER 208 - NUMBER OF SYMMOPS WHICH DO NOT MOVE THE ATOM   2
 SEQUENCE NUMBERS OF THE SYMMOPS
    1   10
 NUMBER OF ATOMS EQUIVALENT BY SYMMETRY    7
 SEQUENCE NUMBERS OF THESE ATOMS
   15   13   16   20   22   24   18
 SEQUENCE NUMBERS OF THE CORRESPONDING SYMMOPS
    2    3    4    5    6    7    8


 ATOM  15 ATOMIC NUMBER 208 - NUMBER OF SYMMOPS WHICH DO NOT MOVE THE ATOM   2
 SEQUENCE NUMBERS OF THE SYMMOPS
    1   10
 NUMBER OF ATOMS EQUIVALENT BY SYMMETRY    7
 SEQUENCE NUMBERS OF THESE ATOMS
   14   16   13   22   20   18   24
 SEQUENCE NUMBERS OF THE CORRESPONDING SYMMOPS
    2    3    4    5    6    7    8


 ATOM  16 ATOMIC NUMBER 208 - NUMBER OF SYMMOPS WHICH DO NOT MOVE THE ATOM   2
 SEQUENCE NUMBERS OF THE SYMMOPS
    1   10
 NUMBER OF ATOMS EQUIVALENT BY SYMMETRY    7
 SEQUENCE NUMBERS OF THESE ATOMS
   13   15   14   18   24   22   20
 SEQUENCE NUMBERS OF THE CORRESPONDING SYMMOPS
    2    3    4    5    6    7    8


 ATOM  17 ATOMIC NUMBER 208 - NUMBER OF SYMMOPS WHICH DO NOT MOVE THE ATOM   4
 SEQUENCE NUMBERS OF THE SYMMOPS
    1    3   10   12
 NUMBER OF ATOMS EQUIVALENT BY SYMMETRY    3
 SEQUENCE NUMBERS OF THESE ATOMS
   21   10    9
 SEQUENCE NUMBERS OF THE CORRESPONDING SYMMOPS
    2    5    6


 ATOM  18 ATOMIC NUMBER 208 - NUMBER OF SYMMOPS WHICH DO NOT MOVE THE ATOM   2
 SEQUENCE NUMBERS OF THE SYMMOPS
    1   10
 NUMBER OF ATOMS EQUIVALENT BY SYMMETRY    7
 SEQUENCE NUMBERS OF THESE ATOMS
   24   20   22   16   13   14   15
 SEQUENCE NUMBERS OF THE CORRESPONDING SYMMOPS
    2    3    4    5    6    7    8


 ATOM  19 ATOMIC NUMBER 208 - NUMBER OF SYMMOPS WHICH DO NOT MOVE THE ATOM   4
 SEQUENCE NUMBERS OF THE SYMMOPS
    1    3   10   12
 NUMBER OF ATOMS EQUIVALENT BY SYMMETRY    3
 SEQUENCE NUMBERS OF THESE ATOMS
   23   12   11
 SEQUENCE NUMBERS OF THE CORRESPONDING SYMMOPS
    2    5    6


 ATOM  20 ATOMIC NUMBER 208 - NUMBER OF SYMMOPS WHICH DO NOT MOVE THE ATOM   2
 SEQUENCE NUMBERS OF THE SYMMOPS
    1   10
 NUMBER OF ATOMS EQUIVALENT BY SYMMETRY    7
 SEQUENCE NUMBERS OF THESE ATOMS
   22   18   24   14   15   16   13
 SEQUENCE NUMBERS OF THE CORRESPONDING SYMMOPS
    2    3    4    5    6    7    8


 ATOM  21 ATOMIC NUMBER 208 - NUMBER OF SYMMOPS WHICH DO NOT MOVE THE ATOM   4
 SEQUENCE NUMBERS OF THE SYMMOPS
    1    3   10   12
 NUMBER OF ATOMS EQUIVALENT BY SYMMETRY    3
 SEQUENCE NUMBERS OF THESE ATOMS
   17    9   10
 SEQUENCE NUMBERS OF THE CORRESPONDING SYMMOPS
    2    5    6


 ATOM  22 ATOMIC NUMBER 208 - NUMBER OF SYMMOPS WHICH DO NOT MOVE THE ATOM   2
 SEQUENCE NUMBERS OF THE SYMMOPS
    1   10
 NUMBER OF ATOMS EQUIVALENT BY SYMMETRY    7
 SEQUENCE NUMBERS OF THESE ATOMS
   20   24   18   15   14   13   16
 SEQUENCE NUMBERS OF THE CORRESPONDING SYMMOPS
    2    3    4    5    6    7    8


 ATOM  23 ATOMIC NUMBER 208 - NUMBER OF SYMMOPS WHICH DO NOT MOVE THE ATOM   4
 SEQUENCE NUMBERS OF THE SYMMOPS
    1    3   10   12
 NUMBER OF ATOMS EQUIVALENT BY SYMMETRY    3
 SEQUENCE NUMBERS OF THESE ATOMS
   19   11   12
 SEQUENCE NUMBERS OF THE CORRESPONDING SYMMOPS
    2    5    6


 ATOM  24 ATOMIC NUMBER 208 - NUMBER OF SYMMOPS WHICH DO NOT MOVE THE ATOM   2
 SEQUENCE NUMBERS OF THE SYMMOPS
    1   10
 NUMBER OF ATOMS EQUIVALENT BY SYMMETRY    7
 SEQUENCE NUMBERS OF THESE ATOMS
   18   22   20   13   16   15   14
 SEQUENCE NUMBERS OF THE CORRESPONDING SYMMOPS
    2    3    4    5    6    7    8


 ATOM  25 ATOMIC NUMBER 238 - NUMBER OF SYMMOPS WHICH DO NOT MOVE THE ATOM   4
 SEQUENCE NUMBERS OF THE SYMMOPS
    1    6   10   13
 NUMBER OF ATOMS EQUIVALENT BY SYMMETRY    3
 SEQUENCE NUMBERS OF THESE ATOMS
   30   26   29
 SEQUENCE NUMBERS OF THE CORRESPONDING SYMMOPS
    2    3    4


 ATOM  26 ATOMIC NUMBER 238 - NUMBER OF SYMMOPS WHICH DO NOT MOVE THE ATOM   4
 SEQUENCE NUMBERS OF THE SYMMOPS
    1    5   10   14
 NUMBER OF ATOMS EQUIVALENT BY SYMMETRY    3
 SEQUENCE NUMBERS OF THESE ATOMS
   29   25   30
 SEQUENCE NUMBERS OF THE CORRESPONDING SYMMOPS
    2    3    4


 ATOM  27 ATOMIC NUMBER 238 - NUMBER OF SYMMOPS WHICH DO NOT MOVE THE ATOM   4
 SEQUENCE NUMBERS OF THE SYMMOPS
    1    6   10   13
 NUMBER OF ATOMS EQUIVALENT BY SYMMETRY    3
 SEQUENCE NUMBERS OF THESE ATOMS
   32   28   31
 SEQUENCE NUMBERS OF THE CORRESPONDING SYMMOPS
    2    3    4


 ATOM  28 ATOMIC NUMBER 238 - NUMBER OF SYMMOPS WHICH DO NOT MOVE THE ATOM   4
 SEQUENCE NUMBERS OF THE SYMMOPS
    1    5   10   14
 NUMBER OF ATOMS EQUIVALENT BY SYMMETRY    3
 SEQUENCE NUMBERS OF THESE ATOMS
   31   27   32
 SEQUENCE NUMBERS OF THE CORRESPONDING SYMMOPS
    2    3    4


 ATOM  29 ATOMIC NUMBER 238 - NUMBER OF SYMMOPS WHICH DO NOT MOVE THE ATOM   4
 SEQUENCE NUMBERS OF THE SYMMOPS
    1    5   10   14
 NUMBER OF ATOMS EQUIVALENT BY SYMMETRY    3
 SEQUENCE NUMBERS OF THESE ATOMS
   26   30   25
 SEQUENCE NUMBERS OF THE CORRESPONDING SYMMOPS
    2    3    4


 ATOM  30 ATOMIC NUMBER 238 - NUMBER OF SYMMOPS WHICH DO NOT MOVE THE ATOM   4
 SEQUENCE NUMBERS OF THE SYMMOPS
    1    6   10   13
 NUMBER OF ATOMS EQUIVALENT BY SYMMETRY    3
 SEQUENCE NUMBERS OF THESE ATOMS
   25   29   26
 SEQUENCE NUMBERS OF THE CORRESPONDING SYMMOPS
    2    3    4


 ATOM  31 ATOMIC NUMBER 238 - NUMBER OF SYMMOPS WHICH DO NOT MOVE THE ATOM   4
 SEQUENCE NUMBERS OF THE SYMMOPS
    1    5   10   14
 NUMBER OF ATOMS EQUIVALENT BY SYMMETRY    3
 SEQUENCE NUMBERS OF THESE ATOMS
   28   32   27
 SEQUENCE NUMBERS OF THE CORRESPONDING SYMMOPS
    2    3    4


 ATOM  32 ATOMIC NUMBER 238 - NUMBER OF SYMMOPS WHICH DO NOT MOVE THE ATOM   4
 SEQUENCE NUMBERS OF THE SYMMOPS
    1    6   10   13
 NUMBER OF ATOMS EQUIVALENT BY SYMMETRY    3
 SEQUENCE NUMBERS OF THESE ATOMS
   27   31   28
 SEQUENCE NUMBERS OF THE CORRESPONDING SYMMOPS
    2    3    4

 *****   16 SYMMOPS - TRANSLATORS IN ANGSTROM
 ***** MATRICES AND TRANSLATORS IN THE CARTESIAN REFERENCE FRAME

 ORDER   : ORDER OF THE OPERATOR

 TRANSLA : REAL TRANSLATION (WITHOUT ORIGIN SHIFT) IN CARTESIAN COORDINATES

 uvw/hkl : ORIENTATION OF THE OPERATOR IN CARTESIAN COORDINATES

 LOCATED : ORIGIN OF THE OPERATOR IN CARTESIAN COORDINATES

   NO.   1 INVERSE   1    ORDER   1        NO.   2 INVERSE   2    ORDER   2
    1.000   0.000   0.000     0.000        -1.000   0.000   0.000     0.000
    0.000   1.000   0.000     0.000         0.000  -1.000   0.000     0.000
    0.000   0.000   1.000     0.000         0.000   0.000   1.000     0.000
             OPERATION E(   1)                       OPERATION C(   2)
 DETERMINANT 1.; ROTATION(DEG)   0.      DETERMINANT 1.; ROTATION(DEG) 180.
 TRANSLA (  0.000    0.000    0.000)     TRANSLA (  0.000    0.000    0.000)
 uvw/hkl (  0.000    0.000    0.000)     uvw/hkl (  0.000    0.000    4.000)
 LOCATED (  0.000    0.000    0.000)     LOCATED (  0.000    0.000    0.000)

   NO.   3 INVERSE   3    ORDER   2        NO.   4 INVERSE   4    ORDER   2
    1.000   0.000   0.000     0.000        -1.000   0.000   0.000     0.000
    0.000  -1.000   0.000     0.000         0.000   1.000   0.000     0.000
    0.000   0.000  -1.000     0.000         0.000   0.000  -1.000     0.000
             OPERATION C(   2)                       OPERATION C(   2)
 DETERMINANT 1.; ROTATION(DEG) 180.      DETERMINANT 1.; ROTATION(DEG) 180.
 TRANSLA (  0.000    0.000    0.000)     TRANSLA (  0.000    0.000    0.000)
 uvw/hkl (  4.000    0.000    0.000)     uvw/hkl (  0.000   -4.000    0.000)
 LOCATED (  0.000    0.000    0.000)     LOCATED (  0.000    0.000    0.000)

   NO.   5 INVERSE   5    ORDER   2        NO.   6 INVERSE   6    ORDER   2
    0.000  -1.000   0.000     0.000         0.000   1.000   0.000     0.000
   -1.000   0.000   0.000     0.000         1.000   0.000   0.000     0.000
    0.000   0.000  -1.000     0.000         0.000   0.000  -1.000     0.000
             OPERATION C(   2)                       OPERATION C(   2)
 DETERMINANT 1.; ROTATION(DEG) 180.      DETERMINANT 1.; ROTATION(DEG) 180.
 TRANSLA (  0.000    0.000    0.000)     TRANSLA (  0.000    0.000    0.000)
 uvw/hkl (  2.000   -2.000    0.000)     uvw/hkl ( -2.000   -2.000    0.000)
 LOCATED (  0.000    0.000    0.000)     LOCATED (  0.000    0.000    0.000)

   NO.   7 INVERSE   8    ORDER   4        NO.   8 INVERSE   7    ORDER   4
    0.000   1.000   0.000     0.000         0.000  -1.000   0.000     0.000
   -1.000   0.000   0.000     0.000         1.000   0.000   0.000     0.000
    0.000   0.000   1.000     0.000         0.000   0.000   1.000     0.000
             OPERATION C(   4)                       OPERATION C(   4)
 DETERMINANT 1.; ROTATION(DEG)  90.      DETERMINANT 1.; ROTATION(DEG)  90.
 TRANSLA (  0.000    0.000    0.000)     TRANSLA (  0.000    0.000    0.000)
 uvw/hkl (  0.000    0.000    2.000)     uvw/hkl (  0.000    0.000    2.000)
 LOCATED (  0.000    0.000    0.000)     LOCATED (  0.000    0.000    0.000)

   NO.   9 INVERSE   9    ORDER   2        NO.  10 INVERSE  10    ORDER   2
   -1.000   0.000   0.000     0.000         1.000   0.000   0.000     0.000
    0.000  -1.000   0.000     0.000         0.000   1.000   0.000     0.000
    0.000   0.000  -1.000     0.000         0.000   0.000  -1.000     0.000
             OPERATION I(   2)                       OPERATION M(   2)
 DETERMINANT-1.; ROTATION(DEG) 180.      DETERMINANT-1.; ROTATION(DEG)   0.
 TRANSLA (  0.000    0.000    0.000)     TRANSLA (  0.000    0.000    0.000)
 uvw/hkl (  0.000    0.000    0.000)     uvw/hkl (  0.000    0.000   -2.000)
 LOCATED (  0.000    0.000    0.000)     LOCATED (  0.000    0.000    0.000)

   NO.  11 INVERSE  11    ORDER   2        NO.  12 INVERSE  12    ORDER   2
   -1.000   0.000   0.000     0.000         1.000   0.000   0.000     0.000
    0.000   1.000   0.000     0.000         0.000  -1.000   0.000     0.000
    0.000   0.000   1.000     0.000         0.000   0.000   1.000     0.000
             OPERATION M(   2)                       OPERATION M(   2)
 DETERMINANT-1.; ROTATION(DEG)   0.      DETERMINANT-1.; ROTATION(DEG)   0.
 TRANSLA (  0.000    0.000    0.000)     TRANSLA (  0.000    0.000    0.000)
 uvw/hkl (  2.000    0.000    0.000)     uvw/hkl (  0.000   -2.000    0.000)
 LOCATED (  0.000    0.000    0.000)     LOCATED (  0.000    0.000    0.000)

   NO.  13 INVERSE  13    ORDER   2        NO.  14 INVERSE  14    ORDER   2
    0.000   1.000   0.000     0.000         0.000  -1.000   0.000     0.000
    1.000   0.000   0.000     0.000        -1.000   0.000   0.000     0.000
    0.000   0.000   1.000     0.000         0.000   0.000   1.000     0.000
             OPERATION M(   2)                       OPERATION M(   2)
 DETERMINANT-1.; ROTATION(DEG)   0.      DETERMINANT-1.; ROTATION(DEG)   0.
 TRANSLA (  0.000    0.000    0.000)     TRANSLA (  0.000    0.000    0.000)
 uvw/hkl (  1.000   -1.000    0.000)     uvw/hkl (  1.000    1.000    0.000)
 LOCATED (  0.000    0.000    0.000)     LOCATED (  0.000    0.000    0.000)

   NO.  15 INVERSE  16    ORDER   4        NO.  16 INVERSE  15    ORDER   4
    0.000  -1.000   0.000     0.000         0.000   1.000   0.000     0.000
    1.000   0.000   0.000     0.000        -1.000   0.000   0.000     0.000
    0.000   0.000  -1.000     0.000         0.000   0.000  -1.000     0.000
             OPERATION S(   4)                       OPERATION S(   4)
 DETERMINANT-1.; ROTATION(DEG)  90.      DETERMINANT-1.; ROTATION(DEG)  90.
 TRANSLA (  0.000    0.000    0.000)     TRANSLA (  0.000    0.000    0.000)
 uvw/hkl (  0.000    0.000    2.000)     uvw/hkl (  0.000    0.000    2.000)
 LOCATED (  0.000    0.000    0.000)     LOCATED (  0.000    0.000    0.000)
 SSSSSSSSSSSSSSSSSSSSSSSSSSSSSSSSSSSSSSSSSSSSSSSSSSSSSSSSSSSSSSSSSSSSSSSSSSSSSS
 REDUCTION OF SYMMETRY - ATOMIC LABELS SET TO (ATOM, AT. N., LABEL)
   1(229) 1;   2(229) 2;   3(229) 2;   4(229) 1;   5(229) 2;   6(229) 1;
   7(229) 1;   8(229) 2;   9(208) 0;  10(208) 0;  11(208) 0;  12(208) 0;
  13(208) 0;  14(208) 0;  15(208) 0;  16(208) 0;  17(208) 0;  18(208) 0;
  19(208) 0;  20(208) 0;  21(208) 0;  22(208) 0;  23(208) 0;  24(208) 0;
  25(238) 0;  26(238) 0;  27(238) 0;  28(238) 0;  29(238) 0;  30(238) 0;
  31(238) 0;  32(238) 0;
 THE NUMBER OF SYMMETRY OPERATORS HAS BEEN REDUCED FROM 16 TO  4
 *******************************************************************************

 GCALCO - MAX INDICES DIRECT LATTICE VECTOR     9     9    32
 NO.OF VECTORS CREATED 6999 STARS  569 RMAX   168.68580 BOHR

 GEOMETRY FOR WAVE FUNCTION - DIMENSIONALITY OF THE SYSTEM    3
 (NON PERIODIC DIRECTION: LATTICE PARAMETER FORMALLY SET TO 500)
 *******************************************************************************
 LATTICE PARAMETERS (ANGSTROMS AND DEGREES) - BOHR = 0.5291772083 ANGSTROM
 PRIMITIVE CELL - CENTRING CODE 1/1 VOLUME=   423.813486 - DENSITY  5.731 g/cm^3
         A              B              C           ALPHA      BETA       GAMMA 
    11.10963748    11.10963748     3.43380000    90.000000  90.000000  90.000000
 *******************************************************************************
 ATOMS IN THE ASYMMETRIC UNIT   20 - ATOMS IN THE UNIT CELL:   32
     ATOM                 X/A                 Y/B                 Z/C    
 *******************************************************************************
      1 T 229 CU   -5.000000000000E-01 -5.000000000000E-01  0.000000000000E+00
      2 T 229 CU    2.500000000000E-01  2.500000000000E-01  0.000000000000E+00
      3 T 229 CU    0.000000000000E+00  0.000000000000E+00  0.000000000000E+00
      4 T 229 CU   -2.500000000000E-01 -2.500000000000E-01  0.000000000000E+00
      5 F 229 CU    2.500000000000E-01 -2.500000000000E-01  0.000000000000E+00
      6 T 229 CU    0.000000000000E+00 -5.000000000000E-01  0.000000000000E+00
      7 F 229 CU   -2.500000000000E-01  2.500000000000E-01  0.000000000000E+00
      8 T 229 CU   -5.000000000000E-01  0.000000000000E+00  0.000000000000E+00
      9 T 208 O    -3.750000000000E-01 -3.750000000000E-01  0.000000000000E+00
     10 T 208 O     3.750000000000E-01  3.750000000000E-01  0.000000000000E+00
     11 T 208 O     1.250000000000E-01  1.250000000000E-01  0.000000000000E+00
     12 T 208 O    -1.250000000000E-01 -1.250000000000E-01  0.000000000000E+00
     13 T 208 O     3.750000000000E-01 -1.250000000000E-01  0.000000000000E+00
     14 T 208 O     1.250000000000E-01 -3.750000000000E-01  0.000000000000E+00
     15 T 208 O    -1.250000000000E-01  3.750000000000E-01  0.000000000000E+00
     16 T 208 O    -3.750000000000E-01  1.250000000000E-01  0.000000000000E+00
     17 F 208 O    -3.750000000000E-01  3.750000000000E-01  0.000000000000E+00
     18 F 208 O     3.750000000000E-01  1.250000000000E-01  0.000000000000E+00
     19 F 208 O     1.250000000000E-01 -1.250000000000E-01  0.000000000000E+00
     20 F 208 O    -1.250000000000E-01 -3.750000000000E-01  0.000000000000E+00
     21 F 208 O     3.750000000000E-01 -3.750000000000E-01  0.000000000000E+00
     22 F 208 O     1.250000000000E-01  3.750000000000E-01  0.000000000000E+00
     23 F 208 O    -1.250000000000E-01  1.250000000000E-01  0.000000000000E+00
     24 F 208 O    -3.750000000000E-01 -1.250000000000E-01  0.000000000000E+00
     25 T 238 SR   -2.500000000000E-01 -5.000000000000E-01  5.000000000000E-01
     26 T 238 SR   -5.000000000000E-01  2.500000000000E-01  5.000000000000E-01
     27 T 238 SR    2.500000000000E-01  0.000000000000E+00  5.000000000000E-01
     28 T 238 SR    0.000000000000E+00 -2.500000000000E-01  5.000000000000E-01
     29 F 238 SR   -5.000000000000E-01 -2.500000000000E-01  5.000000000000E-01
     30 T 238 SR    2.500000000000E-01 -5.000000000000E-01  5.000000000000E-01
     31 F 238 SR    0.000000000000E+00  2.500000000000E-01  5.000000000000E-01
     32 T 238 SR   -2.500000000000E-01  0.000000000000E+00  5.000000000000E-01

 T = ATOM BELONGING TO THE ASYMMETRIC UNIT

 ****    4 SYMMOPS - TRANSLATORS IN FRACTIONAL UNITS
 **** MATRICES AND TRANSLATORS IN THE CRYSTALLOGRAPHIC REFERENCE FRAME
   V INV                    ROTATION MATRICES                   TRANSLATORS
   1   1  1.00  0.00  0.00  0.00  1.00  0.00  0.00  0.00  1.00  0.00  0.00  0.00
   2   2  1.00 -0.00  0.00  0.00 -1.00  0.00  0.00  0.00 -1.00  0.00  0.00  0.00
   3   3  1.00 -0.00  0.00 -0.00  1.00  0.00  0.00  0.00 -1.00  0.00  0.00  0.00
   4   4  1.00 -0.00  0.00  0.00 -1.00  0.00  0.00  0.00  1.00  0.00  0.00  0.00

 DIRECT LATTICE VECTORS CARTESIAN COMPONENTS (ANGSTROM)
          X                    Y                    Z
  -0.785570000000E+01  -0.785570000000E+01   0.000000000000E+00
   0.785570000000E+01  -0.785570000000E+01   0.000000000000E+00
   0.000000000000E+00   0.000000000000E+00   0.343380000000E+01


 CARTESIAN COORDINATES - PRIMITIVE CELL
 *******************************************************************************
 *      ATOM          X(ANGSTROM)         Y(ANGSTROM)         Z(ANGSTROM)
 *******************************************************************************
    1   229 CU    0.000000000000E+00 -7.855700000000E+00  0.000000000000E+00
    2   229 CU    0.000000000000E+00 -3.927850000000E+00  0.000000000000E+00
    3   229 CU    0.000000000000E+00  0.000000000000E+00  0.000000000000E+00
    4   229 CU    4.700037766092E-16  3.927850000000E+00  0.000000000000E+00
    5   229 CU   -3.927850000000E+00  1.645013218132E-15  0.000000000000E+00
    6   229 CU    3.927850000000E+00 -3.927850000000E+00  0.000000000000E+00
    7   229 CU    3.927850000000E+00  4.700037766092E-16  0.000000000000E+00
    8   229 CU   -3.927850000000E+00 -3.927850000000E+00  0.000000000000E+00
    9   208 O    -9.400075532184E-16  5.891775000000E+00  0.000000000000E+00
   10   208 O    -9.400075532184E-16 -5.891775000000E+00  0.000000000000E+00
   11   208 O     0.000000000000E+00 -1.963925000000E+00  0.000000000000E+00
   12   208 O     4.700037766092E-16  1.963925000000E+00  0.000000000000E+00
   13   208 O    -3.927850000000E+00 -1.963925000000E+00  0.000000000000E+00
   14   208 O    -3.927850000000E+00  1.963925000000E+00  0.000000000000E+00
   15   208 O     3.927850000000E+00 -1.963925000000E+00  0.000000000000E+00
   16   208 O     3.927850000000E+00  1.963925000000E+00  0.000000000000E+00
   17   208 O     5.891775000000E+00  9.400075532184E-16  0.000000000000E+00
   18   208 O    -1.963925000000E+00 -3.927850000000E+00  0.000000000000E+00
   19   208 O    -1.963925000000E+00  0.000000000000E+00  0.000000000000E+00
   20   208 O    -1.963925000000E+00  3.927850000000E+00  0.000000000000E+00
   21   208 O    -5.891775000000E+00  1.880015106437E-15  0.000000000000E+00
   22   208 O     1.963925000000E+00 -3.927850000000E+00  0.000000000000E+00
   23   208 O     1.963925000000E+00  4.700037766092E-16  0.000000000000E+00
   24   208 O     1.963925000000E+00  3.927850000000E+00  0.000000000000E+00
   25   238 SR    5.891775000000E+00 -1.963925000000E+00  1.716900000000E+00
   26   238 SR   -1.963925000000E+00 -5.891775000000E+00  1.716900000000E+00
   27   238 SR   -1.963925000000E+00 -1.963925000000E+00  1.716900000000E+00
   28   238 SR   -1.963925000000E+00  1.963925000000E+00  1.716900000000E+00
   29   238 SR   -5.891775000000E+00 -1.963925000000E+00  1.716900000000E+00
   30   238 SR    1.963925000000E+00 -5.891775000000E+00  1.716900000000E+00
   31   238 SR    1.963925000000E+00 -1.963925000000E+00  1.716900000000E+00
   32   238 SR    1.963925000000E+00  1.963925000000E+00  1.716900000000E+00

 *******************************************************************************
 *** PSEUDOPOTENTIAL INFORMATION ***
 *******************************************************************************

 ATOMIC NUMBER  29, NUCLEAR CHARGE 19.000, GIVEN IN INPUT       PSEUDOPOTENTIAL
   TYPE       EXPONENT      COEFF.    N      EXPONENT      COEFF.    N
  W0 TMS     6.2514963   19.0000000  -1     6.7272533  118.7784294   1
             6.6102459 -105.8998240   0
  P0 TMS    12.3656871  127.3506942   0
  P1 TMS    11.1607294   71.2298490   0

 ATOMIC NUMBER   8, NUCLEAR CHARGE  6.000, GIVEN IN INPUT       PSEUDOPOTENTIAL
   TYPE       EXPONENT      COEFF.    N      EXPONENT      COEFF.    N
  W0 TMS     9.2979390    6.0000000  -1     8.8649220   55.7876342   1
             8.6292567  -38.8197850   0
  P0 TMS     8.7192445   38.4191413   0

 ATOMIC NUMBER  38, NUCLEAR CHARGE  2.000, GIVEN IN INPUT       PSEUDOPOTENTIAL
   TYPE       EXPONENT      COEFF.    N      EXPONENT      COEFF.    N
  W0 TMS     4.3839388    2.0000000  -1     3.1964983    8.7678775   1
             0.9899150  -14.2552431   0
  P0 TMS     1.2868349  146.8716052   0
  P1 TMS     0.9567448  140.0262284   0
  P2 TMS     1.9483165   24.4454878   0

 *******************************************************************************
 LOCAL ATOMIC FUNCTIONS BASIS SET
 *******************************************************************************
   ATOM   X(AU)   Y(AU)   Z(AU)  N. TYPE  EXPONENT  S COEF   P COEF   D/F/G COEF
 *******************************************************************************
   1 CU   0.000 -14.845   0.000
                                  1 S  
                                         2.785E+01-1.934E-02 0.000E+00 0.000E+00
                                         2.142E+01 8.861E-02 0.000E+00 0.000E+00
                                         1.054E+01-3.559E-01 0.000E+00 0.000E+00
                                         2.536E+00 5.381E-01 0.000E+00 0.000E+00
                                         1.250E+00 5.111E-01 0.000E+00 0.000E+00
                                         5.998E-01 1.476E-01 0.000E+00 0.000E+00
                                  2 S  
                                         2.785E+01-2.653E-03 0.000E+00 0.000E+00
                                         2.142E+01-7.542E-03 0.000E+00 0.000E+00
                                         1.054E+01 7.976E-02 0.000E+00 0.000E+00
                                         2.536E+00-1.553E-01 0.000E+00 0.000E+00
                                         1.250E+00-2.531E-01 0.000E+00 0.000E+00
                                         5.998E-01-2.817E-02 0.000E+00 0.000E+00
                           3-     5 P  
                                         1.859E+01 0.000E+00 3.652E-03 0.000E+00
                                         1.430E+01 0.000E+00-3.708E-02 0.000E+00
                                         5.631E+00 0.000E+00 2.171E-01 0.000E+00
                                         2.683E+00 0.000E+00 4.410E-01 0.000E+00
                                         1.259E+00 0.000E+00 3.587E-01 0.000E+00
                                         5.741E-01 0.000E+00 1.148E-01 0.000E+00
                                         2.092E-01 0.000E+00 7.316E-03 0.000E+00
                           6-    10 D  
                                         1.579E+01 0.000E+00 0.000E+00 8.422E-02
                                         7.203E+00 0.000E+00 0.000E+00 2.554E-01
                                         2.974E+00 0.000E+00 0.000E+00 3.500E-01
                                         1.207E+00 0.000E+00 0.000E+00 3.417E-01
                                         4.640E-01 0.000E+00 0.000E+00 2.417E-01
                          11-    17 F  
                                         1.692E+00 0.000E+00 0.000E+00 1.000E+00
                                 18 S  
                                         2.000E-01 1.000E+00 0.000E+00 0.000E+00
                                 19 S  
                                         6.000E-01 1.000E+00 0.000E+00 0.000E+00
                          20-    22 P  
                                         2.000E-01 0.000E+00 1.000E+00 0.000E+00
                          23-    25 P  
                                         6.000E-01 0.000E+00 1.000E+00 0.000E+00
                          26-    30 D  
                                         2.000E-01 0.000E+00 0.000E+00 1.000E+00
                          31-    35 D  
                                         6.000E-01 0.000E+00 0.000E+00 1.000E+00
   2 CU   0.000  -7.423   0.000
   3 CU   0.000   0.000   0.000
   4 CU   0.000   7.423   0.000
   5 CU  -7.423   0.000   0.000
   6 CU   7.423  -7.423   0.000
   7 CU   7.423   0.000   0.000
   8 CU  -7.423  -7.423   0.000
   9 O   -0.000  11.134   0.000
                                281 S  
                                         2.680E-01 3.048E-01 0.000E+00 0.000E+00
                                         5.731E-01 4.538E-01 0.000E+00 0.000E+00
                                         1.225E+00 2.959E-01 0.000E+00 0.000E+00
                                         2.620E+00 1.957E-02 0.000E+00 0.000E+00
                                         5.603E+00-1.286E-01 0.000E+00 0.000E+00
                                         1.198E+01 1.202E-02 0.000E+00 0.000E+00
                                         2.562E+01 4.070E-04 0.000E+00 0.000E+00
                                         5.478E+01-7.600E-05 0.000E+00 0.000E+00
                         282-   284 P  
                                         3.337E-01 0.000E+00 2.560E-01 0.000E+00
                                         6.666E-01 0.000E+00 2.819E-01 0.000E+00
                                         1.332E+00 0.000E+00 2.428E-01 0.000E+00
                                         2.661E+00 0.000E+00 1.611E-01 0.000E+00
                                         5.316E+00 0.000E+00 8.231E-02 0.000E+00
                                         1.062E+01 0.000E+00 3.990E-02 0.000E+00
                                         2.122E+01 0.000E+00 4.679E-03 0.000E+00
                         285-   289 D  
                                         6.693E-01 0.000E+00 0.000E+00 1.000E+00
                         290-   296 F  
                                         1.423E+00 0.000E+00 0.000E+00 1.000E+00
                                297 S  
                                         2.000E-01 1.000E+00 0.000E+00 0.000E+00
                                298 S  
                                         6.000E-01 1.000E+00 0.000E+00 0.000E+00
                         299-   301 P  
                                         2.000E-01 0.000E+00 1.000E+00 0.000E+00
                         302-   304 P  
                                         6.000E-01 0.000E+00 1.000E+00 0.000E+00
  10 O   -0.000 -11.134   0.000
  11 O    0.000  -3.711   0.000
  12 O    0.000   3.711   0.000
  13 O   -7.423  -3.711   0.000
  14 O   -7.423   3.711   0.000
  15 O    7.423  -3.711   0.000
  16 O    7.423   3.711   0.000
  17 O   11.134   0.000   0.000
  18 O   -3.711  -7.423   0.000
  19 O   -3.711   0.000   0.000
  20 O   -3.711   7.423   0.000
  21 O  -11.134   0.000   0.000
  22 O    3.711  -7.423   0.000
  23 O    3.711   0.000   0.000
  24 O    3.711   7.423   0.000
  25 SR  11.134  -3.711   3.244
                                665 S  
                                         2.177E-01-9.389E-02 0.000E+00 0.000E+00
                                         4.871E-01-2.476E-01 0.000E+00 0.000E+00
                                         1.090E+00 1.601E-01 0.000E+00 0.000E+00
                                         2.439E+00-4.360E-02 0.000E+00 0.000E+00
                                         5.457E+00 8.684E-03 0.000E+00 0.000E+00
                                         1.221E+01-1.296E-03 0.000E+00 0.000E+00
                         666-   668 P  
                                         2.236E-01 0.000E+00-4.747E-02 0.000E+00
                                         4.507E-01 0.000E+00-1.710E-01 0.000E+00
                                         9.086E-01 0.000E+00 1.048E-01 0.000E+00
                                         1.831E+00 0.000E+00-2.952E-02 0.000E+00
                                         3.692E+00 0.000E+00 6.196E-03 0.000E+00
                                         7.442E+00 0.000E+00-9.550E-04 0.000E+00
                         669-   673 D  
                                         5.283E-01 0.000E+00 0.000E+00 1.000E+00
                                674 S  
                                         2.000E-01 1.000E+00 0.000E+00 0.000E+00
                                675 S  
                                         6.000E-01 1.000E+00 0.000E+00 0.000E+00
                         676-   678 P  
                                         2.000E-01 0.000E+00 1.000E+00 0.000E+00
                         679-   681 P  
                                         6.000E-01 0.000E+00 1.000E+00 0.000E+00
  26 SR  -3.711 -11.134   3.244
  27 SR  -3.711  -3.711   3.244
  28 SR  -3.711   3.711   3.244
  29 SR -11.134  -3.711   3.244
  30 SR   3.711 -11.134   3.244
  31 SR   3.711  -3.711   3.244
  32 SR   3.711   3.711   3.244
 INFORMATION **** SET_MPP **** PCRYSTAL CALCULATION
 INFORMATION **** READM2 **** NEW DEFAULT: FOCK/KS MATRIX MIXING SET TO 30 %
 INFORMATION **** READM2 **** NEW DEFAULT: FULL DIRECT SCF MODE
 INFORMATION **** READM2 **** NEW DEFAULT: COULOMB BIPOLAR BUFFER SET TO 32 Mb
 INFORMATION **** READM2 **** NEW DEFAULT: EXCHANGE BIPOLAR BUFFER SET TO 32 Mb

 *******************************************************************************
 NEW DEFAULT: DFT INTEGRATION GRID INCREASED TO XLGRID
 NEW DEFAULT: DIIS ACCELERATOR ACTIVE
 USE KEYWORD NODIIS TO TURN IT OFF
 *******************************************************************************

 INFORMATION **** READM2 **** FULL DIRECT SCF (MONO AND BIEL INT) SELECTED
 INFORMATION **** BIPOSIZE **** COULOMB BIPOLAR BUFFER SET TO   100000000
 INFORMATION **** EXCHSIZE **** EXCHANGE BIPOLAR BUFFER SIZE SET TO    10000000
 INFORMATION **** TOLDEE **** SCF TOL ON TOTAL ENERGY SET TO          10
 INFORMATION **** TOLINTEG **** COULOMB AND EXCHANGE SERIES TOLERANCES MODIFIED
 INFORMATION **** MAXCYCLE **** MAX NUMBER OF SCF CYCLES SET TO         200
 INFORMATION **** SMEAR **** FERMI SMEARING ACTIVE
 FERMI SMEARING - TEMPERATURE SMEARING OF FERMI SURFACE  0.1000E-12
 INFORMATION **** SAVEWF **** not fully tested
 INFORMATION **** SPINLOCK **** LOCK IN A GIVEN SPIN STATE
 ALPHA-BETA ELECTRONS LOCKED TO   0 FOR 200 SCF CYCLES
 SSSSSSSSSSSSSSSSSSSSSSSSSSSSSSSSSSSSSSSSSSSSSSSSSSSSSSSSSSSSSSSSSSSSSSSSSSSSSS
 ATOMIC SPINS SET TO (ATOM, AT. N., SPIN)
   1 229 1   2 229-1   3 229-1   4 229 1   5 229-1   6 229 1   7 229 1   8 229-1
   9 208 0  10 208 0  11 208 0  12 208 0  13 208 0  14 208 0  15 208 0  16 208 0
  17 208 0  18 208 0  19 208 0  20 208 0  21 208 0  22 208 0  23 208 0  24 208 0
  25 238 0  26 238 0  27 238 0  28 238 0  29 238 0  30 238 0  31 238 0  32 238 0
 *******************************************************************************
 N. OF ATOMS PER CELL        32  COULOMB OVERLAP TOL         (T1) 10**   -8
 NUMBER OF SHELLS           272  COULOMB PENETRATION TOL     (T2) 10**   -8
 NUMBER OF AO               800  EXCHANGE OVERLAP TOL        (T3) 10**   -8
 N. OF ELECTRONS PER CELL   264  EXCHANGE PSEUDO OVP (F(G))  (T4) 10**   -8
 CORE ELECTRONS PER CELL      0  EXCHANGE PSEUDO OVP (P(G))  (T5) 10**  -16
 N. OF SYMMETRY OPERATORS     4  POLE ORDER IN MONO ZONE                  4
 *******************************************************************************
 TYPE OF CALCULATION :  UNRESTRICTED OPEN SHELL
 KOHN-SHAM HAMILTONIAN

 (EXCHANGE)[CORRELATION] FUNCTIONAL:(PERDEW-BURKE-ERNZERHOF)[PERDEW-BURKE-ERNZERHOF]


 HYBRID EXCHANGE - PERCENTAGE OF FOCK EXCHANGE    25.0000

 SPIN POLARIZED DFT SELECTED
 CORE  PSEUDO POTENTIAL         TOL. ON PSEUDO              (TP) 10**- 6

 CAPPA:IS1  5;IS2  5;IS3  4; K PTS MONK NET  27; SYMMOPS:K SPACE   8;G SPACE   4

 *******************************************************************************
 MAX NUMBER OF SCF CYCLES     200  CONVERGENCE ON DELTAP        10**-20
 WEIGHT OF F(I) IN F(I+1)      90% CONVERGENCE ON ENERGY        10**-10
 SHRINK. FACT.(MONKH.)    5  5  4  NUMBER OF K POINTS IN THE IBZ     27
 SHRINKING FACTOR(GILAT NET)   10  NUMBER OF K POINTS(GILAT NET)    180
 *******************************************************************************
 *** K POINTS COORDINATES (OBLIQUE COORDINATES IN UNITS OF IS =  5)
   1-R(  0  0  0)   2-C(  1  0  0)   3-C(  2  0  0)   4-C(  0  1  0)
   5-C(  1  1  0)   6-C(  2  1  0)   7-C(  0  2  0)   8-C(  1  2  0)
   9-C(  2  2  0)  10-C(  0  0  1)  11-C(  1  0  1)  12-C(  2  0  1)
  13-C(  0  1  1)  14-C(  1  1  1)  15-C(  2  1  1)  16-C(  0  2  1)
  17-C(  1  2  1)  18-C(  2  2  1)  19-R(  0  0  2)  20-C(  1  0  2)
  21-C(  2  0  2)  22-C(  0  1  2)  23-C(  1  1  2)  24-C(  2  1  2)
  25-C(  0  2  2)  26-C(  1  2  2)  27-C(  2  2  2)

 DIRECT LATTICE VECTORS COMPON. (A.U.)     RECIP. LATTICE VECTORS COMPON. (A.U.) 
        X            Y            Z              X            Y            Z
  -14.8451216  -14.8451216    0.0000000     -0.2116246   -0.2116246    0.0000000
   14.8451216  -14.8451216    0.0000000      0.2116246   -0.2116246    0.0000000
    0.0000000    0.0000000    6.4889416      0.0000000    0.0000000    0.9682912

 DISK SPACE FOR EIGENVECTORS (FTN 10)    33280000 REALS

 SYMMETRY ADAPTION OF THE BLOCH FUNCTIONS ENABLED
[golub330:179758] 23 more processes have sent help message help-mpi-btl-openib.txt / no device params found
[golub330:179758] Set MCA parameter "orte_base_help_aggregate" to 0 to see all help / error messages
 TTTTTTTTTTTTTTTTTTTTTTTTTTTTTT gordsh1     TELAPSE        5.34 TCPU        0.06

 MATRIX SIZE: P(G) 2526000, F(G)  450872, P(G) IRR  406104, F(G) IRR  158476
 MAX G-VECTOR INDEX FOR 1- AND 2-ELECTRON INTEGRALS  75

 TTTTTTTTTTTTTTTTTTTTTTTTTTTTTT INPUT       TELAPSE        5.37 TCPU        0.08

 NEIGHBORS OF THE NON-EQUIVALENT ATOMS

 N = NUMBER OF NEIGHBORS AT DISTANCE R
    ATOM  N     R/ANG      R/AU   NEIGHBORS (ATOM LABELS AND CELL INDICES)
   1 CU   4     1.9639     3.7113    9 O    1 1 0   10 O    0 0 0   17 O    1 0 0
                                    21 O    0 1 0
   1 CU   8     3.2652     6.1704   25 SR   1 0 0   25 SR   1 0-1   26 SR   0 0 0
                                    26 SR   0 0-1   29 SR   0 1-1   29 SR   0 1 0
                                    30 SR   0 0 0   30 SR   0 0-1
   1 CU   2     3.4338     6.4889    1 CU   0 0-1    1 CU   0 0 1
   1 CU   4     3.9278     7.4226    2 CU   0 0 0    4 CU   1 1 0    5 CU   0 1 0
                                     7 CU   1 0 0
   1 CU   8     3.9558     7.4753    9 O    1 1 1    9 O    1 1-1   10 O    0 0 1
                                    10 O    0 0-1   17 O    1 0-1   17 O    1 0 1
                                    21 O    0 1-1   21 O    0 1 1
   1 CU   8     4.3915     8.2987   13 O    0 1 0   14 O    0 1 0   15 O    1 0 0
                                    16 O    1 0 0   18 O    0 0 0   20 O    1 1 0
                                    22 O    0 0 0   24 O    1 1 0

   2 CU   4     1.9639     3.7113   10 O    0 0 0   11 O    0 0 0   18 O    0 0 0
                                    22 O    0 0 0
   2 CU   8     3.2652     6.1704   26 SR   0 0 0   26 SR   0 0-1   27 SR   0 0-1
                                    27 SR   0 0 0   30 SR   0 0-1   30 SR   0 0 0
                                    31 SR   0 0 0   31 SR   0 0-1
   2 CU   2     3.4338     6.4889    2 CU   0 0-1    2 CU   0 0 1
   2 CU   4     3.9278     7.4226    1 CU   0 0 0    3 CU   0 0 0    6 CU   0 0 0
                                     8 CU   0 0 0
   2 CU   8     3.9558     7.4753   10 O    0 0-1   10 O    0 0 1   11 O    0 0 1
                                    11 O    0 0-1   18 O    0 0 1   18 O    0 0-1
                                    22 O    0 0-1   22 O    0 0 1
   2 CU   8     4.3915     8.2987   13 O    0 0 0   14 O    0 1 0   15 O    0 0 0
                                    16 O    1 0 0   17 O    1 0 0   19 O    0 0 0
                                    21 O    0 1 0   23 O    0 0 0

   3 CU   4     1.9639     3.7113   11 O    0 0 0   12 O    0 0 0   19 O    0 0 0
                                    23 O    0 0 0
   3 CU   8     3.2652     6.1704   27 SR   0 0 0   27 SR   0 0-1   28 SR   0 0-1
                                    28 SR   0 0 0   31 SR   0 0 0   31 SR   0 0-1
                                    32 SR   0 0 0   32 SR   0 0-1
   3 CU   2     3.4338     6.4889    3 CU   0 0-1    3 CU   0 0 1
   3 CU   4     3.9278     7.4226    2 CU   0 0 0    4 CU   0 0 0    5 CU   0 0 0
                                     7 CU   0 0 0
   3 CU   8     3.9558     7.4753   11 O    0 0-1   11 O    0 0 1   12 O    0 0 1
                                    12 O    0 0-1   19 O    0 0 1   19 O    0 0-1
                                    23 O    0 0-1   23 O    0 0 1
   3 CU   8     4.3915     8.2987   13 O    0 0 0   14 O    0 0 0   15 O    0 0 0
                                    16 O    0 0 0   18 O    0 0 0   20 O    0 0 0
                                    22 O    0 0 0   24 O    0 0 0

   4 CU   4     1.9639     3.7113    9 O    0 0 0   12 O    0 0 0   20 O    0 0 0
                                    24 O    0 0 0
   4 CU   8     3.2652     6.1704   25 SR   0-1 0   25 SR   0-1-1   28 SR   0 0 0
                                    28 SR   0 0-1   29 SR  -1 0 0   29 SR  -1 0-1
                                    32 SR   0 0 0   32 SR   0 0-1
   4 CU   2     3.4338     6.4889    4 CU   0 0-1    4 CU   0 0 1
   4 CU   4     3.9279     7.4226    1 CU  -1-1 0    3 CU   0 0 0    6 CU   0-1 0
                                     8 CU  -1 0 0
   4 CU   8     3.9558     7.4753    9 O    0 0 1    9 O    0 0-1   12 O    0 0-1
                                    12 O    0 0 1   20 O    0 0 1   20 O    0 0-1
                                    24 O    0 0-1   24 O    0 0 1
   4 CU   8     4.3915     8.2987   13 O   -1 0 0   14 O    0 0 0   15 O    0-1 0
                                    16 O    0 0 0   17 O    0-1 0   19 O    0 0 0
                                    21 O   -1 0 0   23 O    0 0 0

   6 CU   4     1.9639     3.7113   14 O    0 1 0   15 O    0 0 0   20 O    0 1 0
                                    22 O    0 0 0
   6 CU   8     3.2652     6.1704   25 SR   0 0 0   25 SR   0 0-1   28 SR   0 1-1
                                    28 SR   0 1 0   30 SR   0 0 0   30 SR   0 0-1
                                    31 SR   0 0 0   31 SR   0 0-1
   6 CU   2     3.4338     6.4889    6 CU   0 0-1    6 CU   0 0 1
   6 CU   4     3.9278     7.4226    2 CU   0 0 0    4 CU   0 1 0    5 CU   0 1 0
                                     7 CU   0 0 0
   6 CU   8     3.9558     7.4753   14 O    0 1 1   14 O    0 1-1   15 O    0 0 1
                                    15 O    0 0-1   20 O    0 1-1   20 O    0 1 1
                                    22 O    0 0-1   22 O    0 0 1
   6 CU   8     4.3915     8.2987    9 O    0 1 0   10 O    0 0 0   11 O    0 0 0
                                    12 O    0 1 0   17 O    0 0 0   19 O    0 1 0
                                    21 O    0 1 0   23 O    0 0 0

   8 CU   4     1.9639     3.7113   13 O    0 0 0   16 O    1 0 0   18 O    0 0 0
                                    24 O    1 0 0
   8 CU   8     3.2652     6.1704   26 SR   0 0 0   26 SR   0 0-1   27 SR   0 0 0
                                    27 SR   0 0-1   29 SR   0 0-1   29 SR   0 0 0
                                    32 SR   1 0 0   32 SR   1 0-1
   8 CU   2     3.4338     6.4889    8 CU   0 0-1    8 CU   0 0 1
   8 CU   4     3.9278     7.4226    2 CU   0 0 0    4 CU   1 0 0    5 CU   0 0 0
                                     7 CU   1 0 0
   8 CU   8     3.9558     7.4753   13 O    0 0 1   13 O    0 0-1   16 O    1 0 1
                                    16 O    1 0-1   18 O    0 0-1   18 O    0 0 1
                                    24 O    1 0-1   24 O    1 0 1
   8 CU   8     4.3915     8.2987    9 O    1 0 0   10 O    0 0 0   11 O    0 0 0
                                    12 O    1 0 0   17 O    1 0 0   19 O    0 0 0
                                    21 O    0 0 0   23 O    1 0 0

   9 O    2     1.9639     3.7113    1 CU  -1-1 0    4 CU   0 0 0
   9 O    4     2.6086     4.9295   25 SR   0-1 0   25 SR   0-1-1   29 SR  -1 0 0
                                    29 SR  -1 0-1
   9 O    4     2.7774     5.2485   17 O    0-1 0   20 O    0 0 0   21 O   -1 0 0
                                    24 O    0 0 0
   9 O    2     3.4338     6.4889    9 O    0 0-1    9 O    0 0 1
   9 O    4     3.9279     7.4226   10 O   -1-1 0   12 O    0 0 0   13 O   -1 0 0
                                    15 O    0-1 0
   9 O    4     3.9558     7.4753    1 CU  -1-1-1    1 CU  -1-1 1    4 CU   0 0-1
                                     4 CU   0 0 1

  10 O    2     1.9639     3.7113    1 CU   0 0 0    2 CU   0 0 0
  10 O    4     2.6086     4.9295   26 SR   0 0 0   26 SR   0 0-1   30 SR   0 0 0
                                    30 SR   0 0-1
  10 O    4     2.7774     5.2485   17 O    1 0 0   18 O    0 0 0   21 O    0 1 0
                                    22 O    0 0 0
  10 O    2     3.4338     6.4889   10 O    0 0-1   10 O    0 0 1
  10 O    4     3.9279     7.4226    9 O    1 1 0   11 O    0 0 0   14 O    0 1 0
                                    16 O    1 0 0
  10 O    4     3.9558     7.4753    1 CU   0 0-1    1 CU   0 0 1    2 CU   0 0 1
                                     2 CU   0 0-1

  11 O    2     1.9639     3.7113    2 CU   0 0 0    3 CU   0 0 0
  11 O    4     2.6086     4.9295   27 SR   0 0 0   27 SR   0 0-1   31 SR   0 0 0
                                    31 SR   0 0-1
  11 O    4     2.7774     5.2485   18 O    0 0 0   19 O    0 0 0   22 O    0 0 0
                                    23 O    0 0 0
  11 O    2     3.4338     6.4889   11 O    0 0-1   11 O    0 0 1
  11 O    4     3.9278     7.4226   10 O    0 0 0   12 O    0 0 0   13 O    0 0 0
                                    15 O    0 0 0
  11 O    4     3.9558     7.4753    2 CU   0 0-1    2 CU   0 0 1    3 CU   0 0 1
                                     3 CU   0 0-1

  12 O    2     1.9639     3.7113    3 CU   0 0 0    4 CU   0 0 0
  12 O    4     2.6086     4.9295   28 SR   0 0 0   28 SR   0 0-1   32 SR   0 0 0
                                    32 SR   0 0-1
  12 O    4     2.7774     5.2485   19 O    0 0 0   20 O    0 0 0   23 O    0 0 0
                                    24 O    0 0 0
  12 O    2     3.4338     6.4889   12 O    0 0-1   12 O    0 0 1
  12 O    4     3.9279     7.4226    9 O    0 0 0   11 O    0 0 0   14 O    0 0 0
                                    16 O    0 0 0
  12 O    4     3.9558     7.4753    3 CU   0 0-1    3 CU   0 0 1    4 CU   0 0 1
                                     4 CU   0 0-1

  13 O    2     1.9639     3.7113    5 CU   0 0 0    8 CU   0 0 0
  13 O    4     2.6086     4.9295   27 SR   0 0 0   27 SR   0 0-1   29 SR   0 0 0
                                    29 SR   0 0-1
  13 O    4     2.7774     5.2485   18 O    0 0 0   19 O    0 0 0   21 O    0 0 0
                                    24 O    1 0 0
  13 O    2     3.4338     6.4889   13 O    0 0-1   13 O    0 0 1
  13 O    4     3.9278     7.4226    9 O    1 0 0   11 O    0 0 0   14 O    0 0 0
                                    16 O    1 0 0
  13 O    4     3.9558     7.4753    5 CU   0 0 1    5 CU   0 0-1    8 CU   0 0-1
                                     8 CU   0 0 1

  14 O    2     1.9639     3.7113    5 CU   0 0 0    6 CU   0-1 0
  14 O    4     2.6086     4.9295   28 SR   0 0 0   28 SR   0 0-1   30 SR   0-1 0
                                    30 SR   0-1-1
  14 O    4     2.7774     5.2485   19 O    0 0 0   20 O    0 0 0   21 O    0 0 0
                                    22 O    0-1 0
  14 O    2     3.4338     6.4889   14 O    0 0-1   14 O    0 0 1
  14 O    4     3.9278     7.4226   10 O    0-1 0   12 O    0 0 0   13 O    0 0 0
                                    15 O    0-1 0
  14 O    4     3.9558     7.4753    5 CU   0 0-1    5 CU   0 0 1    6 CU   0-1-1
                                     6 CU   0-1 1

  15 O    2     1.9639     3.7113    6 CU   0 0 0    7 CU   0 0 0
  15 O    4     2.6086     4.9295   25 SR   0 0 0   25 SR   0 0-1   31 SR   0 0 0
                                    31 SR   0 0-1
  15 O    4     2.7774     5.2485   17 O    0 0 0   20 O    0 1 0   22 O    0 0 0
                                    23 O    0 0 0
  15 O    2     3.4338     6.4889   15 O    0 0-1   15 O    0 0 1
  15 O    4     3.9278     7.4226    9 O    0 1 0   11 O    0 0 0   14 O    0 1 0
                                    16 O    0 0 0
  15 O    4     3.9558     7.4753    6 CU   0 0-1    6 CU   0 0 1    7 CU   0 0 1
                                     7 CU   0 0-1

  16 O    2     1.9639     3.7113    7 CU   0 0 0    8 CU  -1 0 0
  16 O    4     2.6086     4.9295   26 SR  -1 0 0   26 SR  -1 0-1   32 SR   0 0 0
                                    32 SR   0 0-1
  16 O    4     2.7774     5.2485   17 O    0 0 0   18 O   -1 0 0   23 O    0 0 0
                                    24 O    0 0 0
  16 O    2     3.4338     6.4889   16 O    0 0-1   16 O    0 0 1
  16 O    4     3.9278     7.4226   10 O   -1 0 0   12 O    0 0 0   13 O   -1 0 0
                                    15 O    0 0 0
  16 O    4     3.9558     7.4753    7 CU   0 0-1    7 CU   0 0 1    8 CU  -1 0-1
                                     8 CU  -1 0 1

  25 SR   8     2.6086     4.9295    9 O    0 1 0    9 O    0 1 1   15 O    0 0 0
                                    15 O    0 0 1   17 O    0 0 1   17 O    0 0 0
                                    20 O    0 1 1   20 O    0 1 0
  25 SR   8     3.2652     6.1704    1 CU  -1 0 0    1 CU  -1 0 1    4 CU   0 1 0
                                     4 CU   0 1 1    6 CU   0 0 0    6 CU   0 0 1
                                     7 CU   0 0 1    7 CU   0 0 0
  25 SR   2     3.4338     6.4889   25 SR   0 0-1   25 SR   0 0 1
  25 SR   4     3.9278     7.4226   26 SR  -1 0 0   28 SR   0 1 0   29 SR  -1 1 0
                                    31 SR   0 0 0
  25 SR  16     4.7152     8.9104   10 O   -1 0 0   10 O   -1 0 1   12 O    0 1 0
                                    12 O    0 1 1   14 O    0 1 0   14 O    0 1 1
                                    16 O    0 0 0   16 O    0 0 1   21 O   -1 1 1
                                    21 O   -1 1 0   22 O    0 0 1   22 O    0 0 0
                                    23 O    0 0 1   23 O    0 0 0   24 O    0 1 1
                                    24 O    0 1 0
  25 SR   8     5.2172     9.8590   26 SR  -1 0-1   26 SR  -1 0 1   28 SR   0 1 1
                                    28 SR   0 1-1   29 SR  -1 1 1   29 SR  -1 1-1
                                    31 SR   0 0-1   31 SR   0 0 1

  26 SR   8     2.6086     4.9295   10 O    0 0 0   10 O    0 0 1   16 O    1 0 0
                                    16 O    1 0 1   17 O    1 0 1   17 O    1 0 0
                                    18 O    0 0 1   18 O    0 0 0
  26 SR   8     3.2652     6.1704    1 CU   0 0 0    1 CU   0 0 1    2 CU   0 0 0
                                     2 CU   0 0 1    7 CU   1 0 0    7 CU   1 0 1
                                     8 CU   0 0 0    8 CU   0 0 1
  26 SR   2     3.4338     6.4889   26 SR   0 0-1   26 SR   0 0 1
  26 SR   4     3.9278     7.4226   25 SR   1 0 0   27 SR   0 0 0   30 SR   0 0 0
                                    32 SR   1 0 0
  26 SR  16     4.7152     8.9104    9 O    1 1 0    9 O    1 1 1   11 O    0 0 0
                                    11 O    0 0 1   13 O    0 0 0   13 O    0 0 1
                                    15 O    1 0 0   15 O    1 0 1   21 O    0 1 0
                                    21 O    0 1 1   22 O    0 0 1   22 O    0 0 0
                                    23 O    1 0 1   23 O    1 0 0   24 O    1 0 0
                                    24 O    1 0 1
  26 SR   8     5.2172     9.8590   25 SR   1 0 1   25 SR   1 0-1   27 SR   0 0 1
                                    27 SR   0 0-1   30 SR   0 0 1   30 SR   0 0-1
                                    32 SR   1 0 1   32 SR   1 0-1

  27 SR   8     2.6086     4.9295   11 O    0 0 0   11 O    0 0 1   13 O    0 0 0
                                    13 O    0 0 1   18 O    0 0 1   18 O    0 0 0
                                    19 O    0 0 1   19 O    0 0 0
  27 SR   8     3.2652     6.1704    2 CU   0 0 1    2 CU   0 0 0    3 CU   0 0 0
                                     3 CU   0 0 1    5 CU   0 0 0    5 CU   0 0 1
                                     8 CU   0 0 0    8 CU   0 0 1
  27 SR   2     3.4338     6.4889   27 SR   0 0-1   27 SR   0 0 1
  27 SR   4     3.9278     7.4226   26 SR   0 0 0   28 SR   0 0 0   29 SR   0 0 0
                                    31 SR   0 0 0
  27 SR  16     4.7152     8.9104   10 O    0 0 0   10 O    0 0 1   12 O    0 0 0
                                    12 O    0 0 1   14 O    0 0 0   14 O    0 0 1
                                    16 O    1 0 0   16 O    1 0 1   21 O    0 0 1
                                    21 O    0 0 0   22 O    0 0 1   22 O    0 0 0
                                    23 O    0 0 1   23 O    0 0 0   24 O    1 0 1
                                    24 O    1 0 0
  27 SR   8     5.2172     9.8590   26 SR   0 0-1   26 SR   0 0 1   28 SR   0 0 1
                                    28 SR   0 0-1   29 SR   0 0 1   29 SR   0 0-1
                                    31 SR   0 0-1   31 SR   0 0 1

  28 SR   8     2.6086     4.9295   12 O    0 0 0   12 O    0 0 1   14 O    0 0 0
                                    14 O    0 0 1   19 O    0 0 1   19 O    0 0 0
                                    20 O    0 0 1   20 O    0 0 0
  28 SR   8     3.2652     6.1704    3 CU   0 0 1    3 CU   0 0 0    4 CU   0 0 0
                                     4 CU   0 0 1    5 CU   0 0 0    5 CU   0 0 1
                                     6 CU   0-1 1    6 CU   0-1 0
  28 SR   2     3.4338     6.4889   28 SR   0 0-1   28 SR   0 0 1
  28 SR   4     3.9279     7.4226   25 SR   0-1 0   27 SR   0 0 0   30 SR   0-1 0
                                    32 SR   0 0 0
  28 SR  16     4.7152     8.9104    9 O    0 0 0    9 O    0 0 1   11 O    0 0 0
                                    11 O    0 0 1   13 O    0 0 0   13 O    0 0 1
                                    15 O    0-1 1   15 O    0-1 0   21 O    0 0 1
                                    21 O    0 0 0   22 O    0-1 0   22 O    0-1 1
                                    23 O    0 0 1   23 O    0 0 0   24 O    0 0 1
                                    24 O    0 0 0
  28 SR   8     5.2172     9.8590   25 SR   0-1-1   25 SR   0-1 1   27 SR   0 0-1
                                    27 SR   0 0 1   30 SR   0-1 1   30 SR   0-1-1
                                    32 SR   0 0-1   32 SR   0 0 1

  30 SR   8     2.6086     4.9295   10 O    0 0 0   10 O    0 0 1   14 O    0 1 0
                                    14 O    0 1 1   21 O    0 1 1   21 O    0 1 0
                                    22 O    0 0 1   22 O    0 0 0
  30 SR   8     3.2652     6.1704    1 CU   0 0 0    1 CU   0 0 1    2 CU   0 0 1
                                     2 CU   0 0 0    5 CU   0 1 0    5 CU   0 1 1
                                     6 CU   0 0 0    6 CU   0 0 1
  30 SR   2     3.4338     6.4889   30 SR   0 0-1   30 SR   0 0 1
  30 SR   4     3.9279     7.4226   26 SR   0 0 0   28 SR   0 1 0   29 SR   0 1 0
                                    31 SR   0 0 0
  30 SR  16     4.7152     8.9104    9 O    1 1 0    9 O    1 1 1   11 O    0 0 0
                                    11 O    0 0 1   13 O    0 1 0   13 O    0 1 1
                                    15 O    0 0 0   15 O    0 0 1   17 O    1 0 1
                                    17 O    1 0 0   18 O    0 0 1   18 O    0 0 0
                                    19 O    0 1 1   19 O    0 1 0   20 O    0 1 1
                                    20 O    0 1 0
  30 SR   8     5.2172     9.8590   26 SR   0 0-1   26 SR   0 0 1   28 SR   0 1-1
                                    28 SR   0 1 1   29 SR   0 1 1   29 SR   0 1-1
                                    31 SR   0 0 1   31 SR   0 0-1

  32 SR   8     2.6086     4.9295   12 O    0 0 0   12 O    0 0 1   16 O    0 0 0
                                    16 O    0 0 1   23 O    0 0 1   23 O    0 0 0
                                    24 O    0 0 1   24 O    0 0 0
  32 SR   8     3.2652     6.1704    3 CU   0 0 0    3 CU   0 0 1    4 CU   0 0 0
                                     4 CU   0 0 1    7 CU   0 0 1    7 CU   0 0 0
                                     8 CU  -1 0 0    8 CU  -1 0 1
  32 SR   2     3.4338     6.4889   32 SR   0 0-1   32 SR   0 0 1
  32 SR   4     3.9278     7.4226   26 SR  -1 0 0   28 SR   0 0 0   29 SR  -1 0 0
                                    31 SR   0 0 0
  32 SR  16     4.7152     8.9104    9 O    0 0 0    9 O    0 0 1   11 O    0 0 0
                                    11 O    0 0 1   13 O   -1 0 0   13 O   -1 0 1
                                    15 O    0 0 0   15 O    0 0 1   17 O    0 0 1
                                    17 O    0 0 0   18 O   -1 0 1   18 O   -1 0 0
                                    19 O    0 0 1   19 O    0 0 0   20 O    0 0 1
                                    20 O    0 0 0
  32 SR   8     5.2172     9.8590   26 SR  -1 0-1   26 SR  -1 0 1   28 SR   0 0 1
                                    28 SR   0 0-1   29 SR  -1 0 1   29 SR  -1 0-1
                                    31 SR   0 0-1   31 SR   0 0 1


 SYMMETRY ALLOWED INTERNAL DEGREE(S) OF FREEDOM:  31
 TTTTTTTTTTTTTTTTTTTTTTTTTTTTTT SYMM        TELAPSE        7.79 TCPU        2.46
 TTTTTTTTTTTTTTTTTTTTTTTTTTTTTT INT_SCREEN  TELAPSE        8.19 TCPU        2.80
 INFORMATION **** EXCBUF **** EXCH. BIPO BUFFER: WORDS USED =     8273970

 DFT PARAMETERS

     ATOM       ELECTRONS   NET CHARGE   R(ANGSTROM)
   1 229  CU     17.0000      2.0000     0.73000000
   9 208  O       8.0000     -2.0000     1.40000000
  25 238  SR      0.0000      2.0000     1.18000000

 SIZE OF GRID=     184524
 TTTTTTTTTTTTTTTTTTTTTTTTTTTTTT MAKE_GRID2  TELAPSE       13.45 TCPU        7.10
 BECKE WEIGHT FUNCTION
 RADSAFE =     2.00
 TOLERANCES - DENSITY:10**- 6; POTENTIAL:10**- 9; GRID WGT:10**-14

 RADIAL INTEGRATION  - INTERVALS (POINTS,UPPER LIMIT):            1( 75,  4.0*R)

 ANGULAR INTEGRATION - INTERVALS (ACCURACY LEVEL [N. POINTS] UPPER LIMIT):
  1(  4[  86]   0.2)  2(  8[ 194]   0.5)  3( 12[ 350]   0.9)  4( 16[ 974]   3.5)
  5( 12[ 350]9999.0)
 TTTTTTTTTTTTTTTTTTTTTTTTTTTTTT INT_CALC    TELAPSE       13.58 TCPU        7.24
 EEEEEEEEEE INT_CALC TERMINATION  DATE 24 03 2018 TIME 16:10:45.2

 *******************************************************************************
 Generated by CrystalWriter                                                      
 CRYSTAL - SCF - TYPE OF CALCULATION :  UNRESTRICTED OPEN SHELL
 *******************************************************************************

 CAPPA:IS1  5;IS2  5;IS3  4; K PTS MONK NET  27; SYMMOPS:K SPACE   8;G SPACE   4

 TTTTTTTTTTTTTTTTTTTTTTTTTTTTTT SDIK        TELAPSE       14.23 TCPU        7.85

 AAAAAAAAAAAAAAAAAAAAAAAAAAAAAAAAAAAAAAAAAAAAAAAAAAAAAAAAAAAAAAAAAAAAAAAAAAAAAAA
         ATOMIC WAVEFUNCTION(S)


 NUCLEAR CHARGE 19.0  SYMMETRY SPECIES            S    P    D
 N. ELECTRONS   17.0  NUMBER OF PRIMITIVE GTOS   14    9    7
                      NUMBER OF CONTRACTED GTOS   4    3    3
                      NUMBER OF CLOSED SHELLS     1    1    0
                      OPEN SHELL OCCUPATION       0    0    9

  ZNUC SCFIT  TOTAL HF ENERGY   KINETIC ENERGY   VIRIAL THEOREM ACCURACY
  19.0  24   -1.953432393E+02  1.248337040E+02 -2.564827712E+00  3.3E-06

 NUCLEAR CHARGE  6.0  SYMMETRY SPECIES            S    P
 N. ELECTRONS    8.0  NUMBER OF PRIMITIVE GTOS   10    9
                      NUMBER OF CONTRACTED GTOS   3    3
                      NUMBER OF CLOSED SHELLS     1    1
                      OPEN SHELL OCCUPATION       0    0

  ZNUC SCFIT  TOTAL HF ENERGY   KINETIC ENERGY   VIRIAL THEOREM ACCURACY
   6.0  43   -1.519668598E+01  1.229882609E+01 -2.235620852E+00  4.1E-06

 AAAAAAAAAAAAAAAAAAAAAAAAAAAAAAAAAAAAAAAAAAAAAAAAAAAAAAAAAAAAAAAAAAAAAAAAAAAAAAA

 CHARGE NORMALIZATION FACTOR   1.00000000
 TOTAL ATOMIC CHARGES:
  17.0000000  17.0000000  17.0000000  17.0000000  17.0000000  17.0000000
  17.0000000  17.0000000   8.0000000   8.0000000   8.0000000   8.0000000
   8.0000000   8.0000000   8.0000000   8.0000000   8.0000000   8.0000000
   8.0000000   8.0000000   8.0000000   8.0000000   8.0000000   8.0000000
   0.0000000   0.0000000   0.0000000   0.0000000   0.0000000   0.0000000
   0.0000000   0.0000000
 SUMMED SPIN DENSITY           0.00000000
 TOTAL ATOMIC SPINS  :
   1.0000000  -1.0000000  -1.0000000   1.0000000  -1.0000000   1.0000000
   1.0000000  -1.0000000   0.0000000   0.0000000   0.0000000   0.0000000
   0.0000000   0.0000000   0.0000000   0.0000000   0.0000000   0.0000000
   0.0000000   0.0000000   0.0000000   0.0000000   0.0000000   0.0000000
   0.0000000   0.0000000   0.0000000   0.0000000   0.0000000   0.0000000
   0.0000000   0.0000000
 TTTTTTTTTTTTTTTTTTTTTTTTTTTTTT MOQGAD      TELAPSE       14.47 TCPU        8.09
 TTTTTTTTTTTTTTTTTTTTTTTTTTTTTT SHELLXN     TELAPSE      209.46 TCPU      201.45
 TTTTTTTTTTTTTTTTTTTTTTTTTTTTTT MONMO3      TELAPSE      243.67 TCPU      234.70
 NUMERICALLY INTEGRATED DENSITY    132.0001145428    132.0001145428
 TTTTTTTTTTTTTTTTTTTTTTTTTTTTTT NUMDFT      TELAPSE      245.01 TCPU      236.02
 CYC   0 ETOT(AU) -1.841348157519E+03 DETOT -1.84E+03 tst  0.00E+00 PX  1.00E+00
 CYCLE  0 WAVE FUNCTION SAVED IN FORTRAN UNIT 79
 TTTTTTTTTTTTTTTTTTTTTTTTTTTTTT DIIS        TELAPSE      245.37 TCPU      236.22
 TTTTTTTTTTTTTTTTTTTTTTTTTTTTTT FDIK        TELAPSE      264.79 TCPU      255.56
 SPIN LOCKING: NO ENERGY GAP COMPUTED
 TTTTTTTTTTTTTTTTTTTTTTTTTTTTTT PDIG        TELAPSE      266.63 TCPU      257.40
 CHARGE NORMALIZATION FACTOR   1.00000000
 TOTAL ATOMIC CHARGES:
  18.2479962  18.2479956  18.2479960  18.2479956  18.2479956  18.2479964
  18.2479956  18.2479964   7.3052875   7.2963430   7.3052876   7.2963431
   7.3052875   7.2963430   7.3052875   7.2963431   7.3052875   7.3052875
   7.3052876   7.3052875   7.2963430   7.2963430   7.2963431   7.2963431
   0.1503228   0.1504068   0.1503228   0.1504068   0.1504068   0.1503576
   0.1504068   0.1503576
 SUMMED SPIN DENSITY          -0.00000000
 TOTAL ATOMIC SPINS  :
   0.2819156  -0.2819155  -0.2819157   0.2819155  -0.2819155   0.2819156
   0.2819155  -0.2819156   0.0324282  -0.0000000  -0.0324282   0.0000000
  -0.0324282  -0.0000001   0.0324282   0.0000000   0.0324282  -0.0324282
  -0.0324282   0.0324282  -0.0000000  -0.0000001   0.0000000   0.0000000
  -0.0009329  -0.0000000   0.0009329   0.0000000  -0.0000000   0.0000000
   0.0000000  -0.0000000
 TTTTTTTTTTTTTTTTTTTTTTTTTTTTTT MOQGAD      TELAPSE      266.77 TCPU      257.54
 TTTTTTTTTTTTTTTTTTTTTTTTTTTTTT SHELLXN     TELAPSE      475.30 TCPU      464.46
 TTTTTTTTTTTTTTTTTTTTTTTTTTTTTT MONMO3      TELAPSE      510.89 TCPU      499.68
 NUMERICALLY INTEGRATED DENSITY    132.0000943413    132.0000943371
 TTTTTTTTTTTTTTTTTTTTTTTTTTTTTT NUMDFT      TELAPSE      515.24 TCPU      503.93
 CYC   1 ETOT(AU) -1.842259738783E+03 DETOT -9.12E-01 tst  0.00E+00 PX  1.00E+00
 CYCLE  1 WAVE FUNCTION SAVED IN FORTRAN UNIT 79
 TTTTTTTTTTTTTTTTTTTTTTTTTTTTTT DIIS        TELAPSE      516.93 TCPU      505.55
 DIIS TEST: 0.42915E+00 AT SCF   CYCLE   1 - MIX   90 %
 TTTTTTTTTTTTTTTTTTTTTTTTTTTTTT FDIK        TELAPSE      520.09 TCPU      508.71
 SPIN LOCKING: NO ENERGY GAP COMPUTED
 TTTTTTTTTTTTTTTTTTTTTTTTTTTTTT PDIG        TELAPSE      520.85 TCPU      509.44
 CHARGE NORMALIZATION FACTOR   1.00000000
 TOTAL ATOMIC CHARGES:
  18.2086067  18.2085390  18.2086005  18.2085404  18.2085390  18.2086064
  18.2085404  18.2086007   7.3245749   7.3147300   7.3245899   7.3147291
   7.3245898   7.3147303   7.3245754   7.3147293   7.3245749   7.3245898
   7.3245899   7.3245754   7.3147300   7.3147303   7.3147291   7.3147293
   0.1520783   0.1521462   0.1520754   0.1521463   0.1521462   0.1520941
   0.1521463   0.1520969
 SUMMED SPIN DENSITY           0.00000000
 TOTAL ATOMIC SPINS  :
   0.3015553  -0.3016045  -0.3016093   0.3015731  -0.3016045   0.3015562
   0.3015731  -0.3016102   0.0359137   0.0000159  -0.0358938   0.0000076
  -0.0358938   0.0000151   0.0359136   0.0000080   0.0359137  -0.0358938
  -0.0358938   0.0359136   0.0000159   0.0000151   0.0000076   0.0000080
  -0.0009988  -0.0000015   0.0010013  -0.0000014  -0.0000015   0.0000095
  -0.0000014  -0.0000078
 TTTTTTTTTTTTTTTTTTTTTTTTTTTTTT MOQGAD      TELAPSE      520.88 TCPU      509.48
 TTTTTTTTTTTTTTTTTTTTTTTTTTTTTT SHELLXN     TELAPSE      729.40 TCPU      716.47
 TTTTTTTTTTTTTTTTTTTTTTTTTTTTTT MONMO3      TELAPSE      766.11 TCPU      753.17
 NUMERICALLY INTEGRATED DENSITY    132.0000911563    132.0000911506
 TTTTTTTTTTTTTTTTTTTTTTTTTTTTTT NUMDFT      TELAPSE      770.12 TCPU      757.18
 CYC   2 ETOT(AU) -1.842292310871E+03 DETOT -3.26E-02 tst  1.61E-04 PX  2.81E-02
 CYCLE  2 WAVE FUNCTION SAVED IN FORTRAN UNIT 79
 TTTTTTTTTTTTTTTTTTTTTTTTTTTTTT DIIS        TELAPSE      771.86 TCPU      758.76
 DIIS TEST: 0.24089E+00 AT SCF   CYCLE   2 - DIIS ACTIVE - HISTORY:     2 CYCLES
 TTTTTTTTTTTTTTTTTTTTTTTTTTTTTT FDIK        TELAPSE      775.14 TCPU      761.88
 SPIN LOCKING: NO ENERGY GAP COMPUTED
 TTTTTTTTTTTTTTTTTTTTTTTTTTTTTT PDIG        TELAPSE      775.80 TCPU      762.55
 CHARGE NORMALIZATION FACTOR   1.00000000
 TOTAL ATOMIC CHARGES:
  18.0514731  18.0512747  18.0513312  18.0514505  18.0512747  18.0514759
  18.0514505  18.0513329   7.4088479   7.3713667   7.4088086   7.3712327
   7.4088084   7.3713677   7.4088446   7.3712329   7.4088479   7.4088084
   7.4088086   7.4088446   7.3713667   7.3713677   7.3712327   7.3712329
   0.1681236   0.1684886   0.1681118   0.1684885   0.1684886   0.1688253
   0.1684885   0.1689023
 SUMMED SPIN DENSITY          -0.00000000
 TOTAL ATOMIC SPINS  :
   0.4309155  -0.4318027  -0.4317304   0.4310169  -0.4318027   0.4309256
   0.4310169  -0.4317360   0.0886960   0.0002889  -0.0884488   0.0002059
  -0.0884496   0.0002832   0.0886930   0.0002096   0.0886960  -0.0884496
  -0.0884488   0.0886930   0.0002889   0.0002832   0.0002059   0.0002096
  -0.0007919   0.0000313   0.0009051   0.0000327   0.0000313  -0.0000043
   0.0000327   0.0000035
 TTTTTTTTTTTTTTTTTTTTTTTTTTTTTT MOQGAD      TELAPSE      775.84 TCPU      762.58
 TTTTTTTTTTTTTTTTTTTTTTTTTTTTTT SHELLXN     TELAPSE      983.61 TCPU      969.26
 TTTTTTTTTTTTTTTTTTTTTTTTTTTTTT MONMO3      TELAPSE     1020.76 TCPU     1006.30
 NUMERICALLY INTEGRATED DENSITY    132.0000616572    132.0000617665
 TTTTTTTTTTTTTTTTTTTTTTTTTTTTTT NUMDFT      TELAPSE     1024.99 TCPU     1010.52
 CYC   3 ETOT(AU) -1.842383799875E+03 DETOT -9.15E-02 tst  3.41E-03 PX  1.97E-01
 CYCLE  3 WAVE FUNCTION SAVED IN FORTRAN UNIT 79
 TTTTTTTTTTTTTTTTTTTTTTTTTTTTTT DIIS        TELAPSE     1026.74 TCPU     1012.12
 DIIS TEST: 0.51965E-01 AT SCF   CYCLE   3 - DIIS ACTIVE - HISTORY:     3 CYCLES
 TTTTTTTTTTTTTTTTTTTTTTTTTTTTTT FDIK        TELAPSE     1031.09 TCPU     1016.36
 SPIN LOCKING: NO ENERGY GAP COMPUTED
 TTTTTTTTTTTTTTTTTTTTTTTTTTTTTT PDIG        TELAPSE     1031.77 TCPU     1017.04
 CHARGE NORMALIZATION FACTOR   1.00000000
 TOTAL ATOMIC CHARGES:
  18.0005097  18.0011503  18.0011013  18.0007524  18.0011503  18.0005075
  18.0007524  18.0011007   7.4315882   7.4053187   7.4317160   7.4053837
   7.4317159   7.4053198   7.4315870   7.4053839   7.4315882   7.4317159
   7.4317160   7.4315870   7.4053187   7.4053198   7.4053837   7.4053839
   0.1610962   0.1619775   0.1610970   0.1619776   0.1619775   0.1634250
   0.1619776   0.1634206
 SUMMED SPIN DENSITY          -0.00000000
 TOTAL ATOMIC SPINS  :
   0.5493797  -0.5492503  -0.5492317   0.5492579  -0.5492503   0.5493869
   0.5492579  -0.5492389   0.1167043  -0.0000707  -0.1166726  -0.0000550
  -0.1166736  -0.0000714   0.1167040  -0.0000507   0.1167043  -0.1166736
  -0.1166726   0.1167040  -0.0000707  -0.0000714  -0.0000550  -0.0000507
  -0.0012799   0.0000041   0.0013148   0.0000037   0.0000041   0.0000053
   0.0000037   0.0000043
 TTTTTTTTTTTTTTTTTTTTTTTTTTTTTT MOQGAD      TELAPSE     1031.80 TCPU     1017.07
 TTTTTTTTTTTTTTTTTTTTTTTTTTTTTT SHELLXN     TELAPSE     1240.30 TCPU     1223.85
 TTTTTTTTTTTTTTTTTTTTTTTTTTTTTT MONMO3      TELAPSE     1278.81 TCPU     1261.94
 NUMERICALLY INTEGRATED DENSITY    132.0000658492    132.0000658692
 TTTTTTTTTTTTTTTTTTTTTTTTTTTTTT NUMDFT      TELAPSE     1282.82 TCPU     1265.95
 CYC   4 ETOT(AU) -1.842426455776E+03 DETOT -4.27E-02 tst  2.05E-03 PX  1.49E-01
 CYCLE  4 WAVE FUNCTION SAVED IN FORTRAN UNIT 79
 TTTTTTTTTTTTTTTTTTTTTTTTTTTTTT DIIS        TELAPSE     1284.39 TCPU     1267.39
 DIIS TEST: 0.89506E-01 AT SCF   CYCLE   4 - DIIS ACTIVE - HISTORY:     4 CYCLES
 TTTTTTTTTTTTTTTTTTTTTTTTTTTTTT FDIK        TELAPSE     1288.83 TCPU     1271.66
 SPIN LOCKING: NO ENERGY GAP COMPUTED
 TTTTTTTTTTTTTTTTTTTTTTTTTTTTTT PDIG        TELAPSE     1289.58 TCPU     1272.39
 CHARGE NORMALIZATION FACTOR   1.00000000
 TOTAL ATOMIC CHARGES:
  18.0080782  18.0073909  18.0075143  18.0078703  18.0073909  18.0080768
  18.0078703  18.0075107   7.4272234   7.3995825   7.4271690   7.3995736
   7.4271693   7.3995814   7.4272245   7.3995762   7.4272234   7.4271693
   7.4271690   7.4272245   7.3995825   7.3995814   7.3995736   7.3995762
[...]
 SPIN LOCKING: NO ENERGY GAP COMPUTED
 TTTTTTTTTTTTTTTTTTTTTTTTTTTTTT PDIG        TELAPSE     3077.18 TCPU     3050.78
 CHARGE NORMALIZATION FACTOR   1.00000000
 TOTAL ATOMIC CHARGES:
  18.0020539  18.0015178  18.0018858  18.0011844  18.0015178  18.0020541
  18.0011844  18.0018868   7.4260223   7.4063600   7.4259993   7.4064674
   7.4259988   7.4063596   7.4260217   7.4064668   7.4260223   7.4259988
   7.4259993   7.4260217   7.4063600   7.4063596   7.4064674   7.4064668
   0.1653127   0.1658501   0.1653168   0.1658501   0.1658501   0.1666508
   0.1658501   0.1666425
 SUMMED SPIN DENSITY           0.00000000
 TOTAL ATOMIC SPINS  :
   0.6380350  -0.6382532  -0.6381187   0.6383996  -0.6382532   0.6380351
   0.6383996  -0.6381184   0.1222934   0.0000492  -0.1223029  -0.0000707
  -0.1223033   0.0000491   0.1222936  -0.0000708   0.1222934  -0.1223033
  -0.1223029   0.1222936   0.0000492   0.0000491  -0.0000707  -0.0000708
  -0.0026919  -0.0000001   0.0026917  -0.0000001  -0.0000001   0.0000010
  -0.0000001  -0.0000011
 TTTTTTTTTTTTTTTTTTTTTTTTTTTTTT MOQGAD      TELAPSE     3077.21 TCPU     3050.82
 TTTTTTTTTTTTTTTTTTTTTTTTTTTTTT SHELLXN     TELAPSE     3284.44 TCPU     3257.21
 TTTTTTTTTTTTTTTTTTTTTTTTTTTTTT MONMO3      TELAPSE     3321.75 TCPU     3294.26
 NUMERICALLY INTEGRATED DENSITY    132.0000666736    132.0000666635
 TTTTTTTTTTTTTTTTTTTTTTTTTTTTTT NUMDFT      TELAPSE     3325.77 TCPU     3298.28
 CYC  12 ETOT(AU) -1.842453057317E+03 DETOT  5.64E-07 tst  1.95E-08 PX  3.97E-04
 CYCLE 12 WAVE FUNCTION SAVED IN FORTRAN UNIT 79
 TTTTTTTTTTTTTTTTTTTTTTTTTTTTTT DIIS        TELAPSE     3327.39 TCPU     3299.81
 DIIS TEST: 0.80237E-05 AT SCF   CYCLE  12 - DIIS ACTIVE - HISTORY:    12 CYCLES
 TTTTTTTTTTTTTTTTTTTTTTTTTTTTTT FDIK        TELAPSE     3330.60 TCPU     3302.96
 SPIN LOCKING: NO ENERGY GAP COMPUTED
 TTTTTTTTTTTTTTTTTTTTTTTTTTTTTT PDIG        TELAPSE     3332.08 TCPU     3304.42
 CHARGE NORMALIZATION FACTOR   1.00000000
 TOTAL ATOMIC CHARGES:
  18.0016431  18.0016817  18.0016370  18.0016720  18.0016817  18.0016433
  18.0016720  18.0016380   7.4260201   7.4064042   7.4260157   7.4064127
   7.4260152   7.4064040   7.4260196   7.4064121   7.4260201   7.4260152
   7.4260157   7.4260196   7.4064042   7.4064040   7.4064127   7.4064121
   0.1653113   0.1658498   0.1653129   0.1658498   0.1658498   0.1666505
   0.1658498   0.1666500
 SUMMED SPIN DENSITY           0.00000000
 TOTAL ATOMIC SPINS  :
   0.6382245  -0.6382119  -0.6382266   0.6382162  -0.6382119   0.6382246
   0.6382162  -0.6382263   0.1222913  -0.0000034  -0.1222913   0.0000023
  -0.1222917  -0.0000034   0.1222914   0.0000023   0.1222913  -0.1222917
  -0.1222913   0.1222914  -0.0000034  -0.0000034   0.0000023   0.0000023
  -0.0026921   0.0000000   0.0026918  -0.0000000   0.0000000   0.0000003
  -0.0000000   0.0000002
 TTTTTTTTTTTTTTTTTTTTTTTTTTTTTT MOQGAD      TELAPSE     3332.12 TCPU     3304.45
 TTTTTTTTTTTTTTTTTTTTTTTTTTTTTT SHELLXN     TELAPSE     3539.59 TCPU     3511.42
 TTTTTTTTTTTTTTTTTTTTTTTTTTTTTT MONMO3      TELAPSE     3577.57 TCPU     3549.03
 NUMERICALLY INTEGRATED DENSITY    132.0000666730    132.0000666640
 TTTTTTTTTTTTTTTTTTTTTTTTTTTTTT NUMDFT      TELAPSE     3581.57 TCPU     3553.03
 CYC  13 ETOT(AU) -1.842453058041E+03 DETOT -7.24E-07 tst  1.12E-08 PX  2.58E-04
 CYCLE 13 WAVE FUNCTION SAVED IN FORTRAN UNIT 79
 TTTTTTTTTTTTTTTTTTTTTTTTTTTTTT DIIS        TELAPSE     3583.19 TCPU     3554.56
 DIIS TEST: 0.17502E-06 AT SCF   CYCLE  13 - DIIS ACTIVE - HISTORY:    13 CYCLES
 TTTTTTTTTTTTTTTTTTTTTTTTTTTTTT FDIK        TELAPSE     3588.43 TCPU     3559.71
 SPIN LOCKING: NO ENERGY GAP COMPUTED
 TTTTTTTTTTTTTTTTTTTTTTTTTTTTTT PDIG        TELAPSE     3589.10 TCPU     3560.37
 CHARGE NORMALIZATION FACTOR   1.00000000
 TOTAL ATOMIC CHARGES:
  18.0016521  18.0016314  18.0016766  18.0016580  18.0016314  18.0016524
  18.0016580  18.0016768   7.4260100   7.4064260   7.4260151   7.4064074
   7.4260147   7.4064259   7.4260098   7.4064074   7.4260100   7.4260147
   7.4260151   7.4260098   7.4064260   7.4064259   7.4064074   7.4064074
   0.1653065   0.1658490   0.1653060   0.1658490   0.1658490   0.1666601
   0.1658490   0.1666618
 SUMMED SPIN DENSITY           0.00000000
 TOTAL ATOMIC SPINS  :
   0.6382653  -0.6382712  -0.6382529   0.6382578  -0.6382712   0.6382653
   0.6382578  -0.6382530   0.1222818   0.0000006  -0.1222800  -0.0000017
  -0.1222801   0.0000006   0.1222817  -0.0000017   0.1222818  -0.1222801
  -0.1222800   0.1222817   0.0000006   0.0000006  -0.0000017  -0.0000017
  -0.0026933  -0.0000000   0.0026932  -0.0000000  -0.0000000   0.0000001
  -0.0000000  -0.0000000
 TTTTTTTTTTTTTTTTTTTTTTTTTTTTTT MOQGAD      TELAPSE     3589.13 TCPU     3560.41
 TTTTTTTTTTTTTTTTTTTTTTTTTTTTTT SHELLXN     TELAPSE     3797.32 TCPU     3767.13
 TTTTTTTTTTTTTTTTTTTTTTTTTTTTTT MONMO3      TELAPSE     3833.01 TCPU     3802.83
 NUMERICALLY INTEGRATED DENSITY    132.0000666726    132.0000666635
 TTTTTTTTTTTTTTTTTTTTTTTTTTTTTT NUMDFT      TELAPSE     3836.93 TCPU     3806.76
 CYC  14 ETOT(AU) -1.842453058042E+03 DETOT -9.35E-10 tst  5.48E-10 PX  5.77E-05
 CYCLE 14 WAVE FUNCTION SAVED IN FORTRAN UNIT 79
 TTTTTTTTTTTTTTTTTTTTTTTTTTTTTT DIIS        TELAPSE     3838.60 TCPU     3808.28
 DIIS TEST: 0.30653E-07 AT SCF   CYCLE  14 - DIIS ACTIVE - HISTORY:    14 CYCLES
 TTTTTTTTTTTTTTTTTTTTTTTTTTTTTT FDIK        TELAPSE     3842.34 TCPU     3811.90
 SPIN LOCKING: NO ENERGY GAP COMPUTED
 TTTTTTTTTTTTTTTTTTTTTTTTTTTTTT PDIG        TELAPSE     3843.07 TCPU     3812.61
 CHARGE NORMALIZATION FACTOR   1.00000000
 TOTAL ATOMIC CHARGES:
  18.0016654  18.0016910  18.0016127  18.0016418  18.0016910  18.0016654
  18.0016418  18.0016133   7.4260147   7.4064039   7.4260075   7.4064354
   7.4260072   7.4064038   7.4260144   7.4064352   7.4260147   7.4260072
   7.4260075   7.4260144   7.4064039   7.4064038   7.4064354   7.4064352
   0.1653077   0.1658495   0.1653077   0.1658495   0.1658495   0.1666609
   0.1658495   0.1666591
 SUMMED SPIN DENSITY           0.00000000
 TOTAL ATOMIC SPINS  :
   0.6382759  -0.6382649  -0.6383019   0.6382897  -0.6382649   0.6382761
   0.6382897  -0.6383018   0.1222707  -0.0000021  -0.1222719   0.0000038
  -0.1222720  -0.0000022   0.1222707   0.0000038   0.1222707  -0.1222720
  -0.1222719   0.1222707  -0.0000021  -0.0000022   0.0000038   0.0000038
  -0.0026929  -0.0000000   0.0026929  -0.0000000  -0.0000000  -0.0000000
  -0.0000000   0.0000000
 TTTTTTTTTTTTTTTTTTTTTTTTTTTTTT MOQGAD      TELAPSE     3843.10 TCPU     3812.65
 TTTTTTTTTTTTTTTTTTTTTTTTTTTTTT SHELLXN     TELAPSE     4049.80 TCPU     4019.16
 TTTTTTTTTTTTTTTTTTTTTTTTTTTTTT MONMO3      TELAPSE     4087.59 TCPU     4056.56
 NUMERICALLY INTEGRATED DENSITY    132.0000666722    132.0000666630
 TTTTTTTTTTTTTTTTTTTTTTTTTTTTTT NUMDFT      TELAPSE     4091.54 TCPU     4060.51
 CYC  15 ETOT(AU) -1.842453058031E+03 DETOT  1.13E-08 tst  2.32E-10 PX  4.19E-05
 CYCLE 15 WAVE FUNCTION SAVED IN FORTRAN UNIT 79
 TTTTTTTTTTTTTTTTTTTTTTTTTTTTTT DIIS        TELAPSE     4093.22 TCPU     4062.12
 DIIS TEST: 0.77643E-07 AT SCF   CYCLE  15 - DIIS ACTIVE - HISTORY:    15 CYCLES
 TTTTTTTTTTTTTTTTTTTTTTTTTTTTTT FDIK        TELAPSE     4097.31 TCPU     4066.01
 SPIN LOCKING: NO ENERGY GAP COMPUTED
 TTTTTTTTTTTTTTTTTTTTTTTTTTTTTT PDIG        TELAPSE     4097.97 TCPU     4066.67
 CHARGE NORMALIZATION FACTOR   1.00000000
 TOTAL ATOMIC CHARGES:
  18.0016509  18.0016496  18.0016556  18.0016551  18.0016496  18.0016510
  18.0016551  18.0016560   7.4260129   7.4064180   7.4260114   7.4064193
   7.4260111   7.4064179   7.4260126   7.4064191   7.4260129   7.4260111
   7.4260114   7.4260126   7.4064180   7.4064179   7.4064193   7.4064191
   0.1653086   0.1658497   0.1653085   0.1658497   0.1658497   0.1666585
   0.1658497   0.1666583
 SUMMED SPIN DENSITY           0.00000000
 TOTAL ATOMIC SPINS  :
   0.6382838  -0.6382843  -0.6382822   0.6382824  -0.6382843   0.6382839
   0.6382824  -0.6382822   0.1222694   0.0000001  -0.1222695   0.0000001
  -0.1222695   0.0000000   0.1222694   0.0000001   0.1222694  -0.1222695
  -0.1222695   0.1222694   0.0000001   0.0000000   0.0000001   0.0000001
  -0.0026928  -0.0000000   0.0026928  -0.0000000  -0.0000000   0.0000000
  -0.0000000  -0.0000000
 TTTTTTTTTTTTTTTTTTTTTTTTTTTTTT MOQGAD      TELAPSE     4098.01 TCPU     4066.71
 TTTTTTTTTTTTTTTTTTTTTTTTTTTTTT SHELLXN     TELAPSE     4305.87 TCPU     4273.52
 TTTTTTTTTTTTTTTTTTTTTTTTTTTTTT MONMO3      TELAPSE     4342.21 TCPU     4309.88
 NUMERICALLY INTEGRATED DENSITY    132.0000666721    132.0000666630
 TTTTTTTTTTTTTTTTTTTTTTTTTTTTTT NUMDFT      TELAPSE     4346.16 TCPU     4313.83
 CYC  16 ETOT(AU) -1.842453058039E+03 DETOT -8.29E-09 tst  1.16E-10 PX  2.43E-05
 CYCLE 16 WAVE FUNCTION SAVED IN FORTRAN UNIT 79
 TTTTTTTTTTTTTTTTTTTTTTTTTTTTTT DIIS        TELAPSE     4347.85 TCPU     4315.37
 DIIS TEST: 0.35487E-08 AT SCF   CYCLE  16 - DIIS ACTIVE - HISTORY:    16 CYCLES
 TTTTTTTTTTTTTTTTTTTTTTTTTTTTTT FDIK        TELAPSE     4352.47 TCPU     4319.73
 SPIN LOCKING: NO ENERGY GAP COMPUTED
 TTTTTTTTTTTTTTTTTTTTTTTTTTTTTT PDIG        TELAPSE     4353.16 TCPU     4320.41
 CHARGE NORMALIZATION FACTOR   1.00000000
 TOTAL ATOMIC CHARGES:
  18.0016543  18.0016536  18.0016504  18.0016510  18.0016536  18.0016544
  18.0016510  18.0016506   7.4260115   7.4064201   7.4260144   7.4064164
   7.4260140   7.4064201   7.4260113   7.4064164   7.4260115   7.4260140
   7.4260144   7.4260113   7.4064201   7.4064201   7.4064164   7.4064164
   0.1653085   0.1658498   0.1653084   0.1658498   0.1658498   0.1666582
   0.1658498   0.1666584
 SUMMED SPIN DENSITY           0.00000000
 TOTAL ATOMIC SPINS  :
   0.6382848  -0.6382846  -0.6382857   0.6382849  -0.6382846   0.6382849
   0.6382849  -0.6382858   0.1222682  -0.0000004  -0.1222674  -0.0000000
  -0.1222674  -0.0000005   0.1222682   0.0000000   0.1222682  -0.1222674
  -0.1222674   0.1222682  -0.0000004  -0.0000005  -0.0000000   0.0000000
  -0.0026928  -0.0000000   0.0026928  -0.0000000  -0.0000000   0.0000000
  -0.0000000  -0.0000000
 TTTTTTTTTTTTTTTTTTTTTTTTTTTTTT MOQGAD      TELAPSE     4353.19 TCPU     4320.45
 TTTTTTTTTTTTTTTTTTTTTTTTTTTTTT SHELLXN     TELAPSE     4560.13 TCPU     4527.18
 TTTTTTTTTTTTTTTTTTTTTTTTTTTTTT MONMO3      TELAPSE     4601.03 TCPU     4567.81
 NUMERICALLY INTEGRATED DENSITY    132.0000666721    132.0000666630
 TTTTTTTTTTTTTTTTTTTTTTTTTTTTTT NUMDFT      TELAPSE     4605.04 TCPU     4571.82
 CYC  17 ETOT(AU) -1.842453058038E+03 DETOT  8.53E-10 tst  5.78E-12 PX  3.44E-06
 CYCLE 17 WAVE FUNCTION SAVED IN FORTRAN UNIT 79
 TTTTTTTTTTTTTTTTTTTTTTTTTTTTTT DIIS        TELAPSE     4606.83 TCPU     4573.56
 DIIS TEST: 0.12644E-08 AT SCF   CYCLE  17 - DIIS ACTIVE - HISTORY:    17 CYCLES
 TTTTTTTTTTTTTTTTTTTTTTTTTTTTTT FDIK        TELAPSE     4610.71 TCPU     4577.37
 SPIN LOCKING: NO ENERGY GAP COMPUTED
 TTTTTTTTTTTTTTTTTTTTTTTTTTTTTT PDIG        TELAPSE     4611.40 TCPU     4578.01
 CHARGE NORMALIZATION FACTOR   1.00000000
 TOTAL ATOMIC CHARGES:
  18.0016518  18.0016497  18.0016544  18.0016524  18.0016497  18.0016518
  18.0016524  18.0016548   7.4260141   7.4064169   7.4260122   7.4064197
   7.4260119   7.4064168   7.4260138   7.4064196   7.4260141   7.4260119
   7.4260122   7.4260138   7.4064169   7.4064168   7.4064197   7.4064196
   0.1653082   0.1658498   0.1653083   0.1658498   0.1658498   0.1666585
   0.1658498   0.1666585
 SUMMED SPIN DENSITY           0.00000000
 TOTAL ATOMIC SPINS  :
   0.6382871  -0.6382873  -0.6382863   0.6382866  -0.6382873   0.6382872
   0.6382866  -0.6382864   0.1222664   0.0000002  -0.1222667   0.0000001
  -0.1222667   0.0000001   0.1222664   0.0000002   0.1222664  -0.1222667
  -0.1222667   0.1222664   0.0000002   0.0000001   0.0000001   0.0000002
  -0.0026926  -0.0000000   0.0026926  -0.0000000  -0.0000000   0.0000000
  -0.0000000  -0.0000000
 TTTTTTTTTTTTTTTTTTTTTTTTTTTTTT MOQGAD      TELAPSE     4611.44 TCPU     4578.04
 TTTTTTTTTTTTTTTTTTTTTTTTTTTTTT SHELLXN     TELAPSE     4819.43 TCPU     4784.99
 TTTTTTTTTTTTTTTTTTTTTTTTTTTTTT MONMO3      TELAPSE     4856.68 TCPU     4822.23
 NUMERICALLY INTEGRATED DENSITY    132.0000666721    132.0000666629
 TTTTTTTTTTTTTTTTTTTTTTTTTTTTTT NUMDFT      TELAPSE     4860.80 TCPU     4826.35
 CYC  18 ETOT(AU) -1.842453058037E+03 DETOT  1.27E-09 tst  5.13E-12 PX  3.54E-06
 CYCLE 18 WAVE FUNCTION SAVED IN FORTRAN UNIT 79
 TTTTTTTTTTTTTTTTTTTTTTTTTTTTTT DIIS        TELAPSE     4862.99 TCPU     4828.46
 DIIS TEST: 0.65221E-09 AT SCF   CYCLE  18 - DIIS ACTIVE - HISTORY:    18 CYCLES
 TTTTTTTTTTTTTTTTTTTTTTTTTTTTTT FDIK        TELAPSE     4867.30 TCPU     4832.58
 SPIN LOCKING: NO ENERGY GAP COMPUTED
 TTTTTTTTTTTTTTTTTTTTTTTTTTTTTT PDIG        TELAPSE     4869.10 TCPU     4834.37
 CHARGE NORMALIZATION FACTOR   1.00000000
 TOTAL ATOMIC CHARGES:
  18.0016525  18.0016523  18.0016519  18.0016520  18.0016523  18.0016525
  18.0016520  18.0016522   7.4260131   7.4064182   7.4260133   7.4064181
   7.4260130   7.4064182   7.4260128   7.4064180   7.4260131   7.4260130
   7.4260133   7.4260128   7.4064182   7.4064182   7.4064181   7.4064180
   0.1653084   0.1658498   0.1653084   0.1658498   0.1658498   0.1666585
   0.1658498   0.1666584
 SUMMED SPIN DENSITY           0.00000000
 TOTAL ATOMIC SPINS  :
   0.6382865  -0.6382864  -0.6382865   0.6382863  -0.6382864   0.6382866
   0.6382863  -0.6382866   0.1222665  -0.0000001  -0.1222664   0.0000001
  -0.1222664  -0.0000002   0.1222664   0.0000001   0.1222665  -0.1222664
  -0.1222664   0.1222664  -0.0000001  -0.0000002   0.0000001   0.0000001
  -0.0026926   0.0000000   0.0026926   0.0000000   0.0000000   0.0000000
   0.0000000  -0.0000000
 TTTTTTTTTTTTTTTTTTTTTTTTTTTTTT MOQGAD      TELAPSE     4869.24 TCPU     4834.51
 TTTTTTTTTTTTTTTTTTTTTTTTTTTTTT SHELLXN     TELAPSE     5077.79 TCPU     5041.44
 TTTTTTTTTTTTTTTTTTTTTTTTTTTTTT MONMO3      TELAPSE     5114.10 TCPU     5077.62
 NUMERICALLY INTEGRATED DENSITY    132.0000666721    132.0000666629
 TTTTTTTTTTTTTTTTTTTTTTTTTTTTTT NUMDFT      TELAPSE     5118.05 TCPU     5081.57
 CYC  19 ETOT(AU) -1.842453058037E+03 DETOT -4.67E-10 tst  7.66E-13 PX  1.35E-06
 CYCLE 19 WAVE FUNCTION SAVED IN FORTRAN UNIT 79
 TTTTTTTTTTTTTTTTTTTTTTTTTTTTTT DIIS        TELAPSE     5119.74 TCPU     5083.14
 DIIS TEST: 0.82288E-10 AT SCF   CYCLE  19 - DIIS ACTIVE - HISTORY:    19 CYCLES
 TTTTTTTTTTTTTTTTTTTTTTTTTTTTTT FDIK        TELAPSE     5122.69 TCPU     5086.00
 SPIN LOCKING: NO ENERGY GAP COMPUTED
 TTTTTTTTTTTTTTTTTTTTTTTTTTTTTT PDIG        TELAPSE     5123.37 TCPU     5086.68
 CHARGE NORMALIZATION FACTOR   1.00000000
 TOTAL ATOMIC CHARGES:
  18.0016525  18.0016518  18.0016525  18.0016520  18.0016518  18.0016526
  18.0016520  18.0016528   7.4260132   7.4064181   7.4260133   7.4064181
   7.4260130   7.4064180   7.4260129   7.4064181   7.4260132   7.4260130
   7.4260133   7.4260129   7.4064181   7.4064180   7.4064181   7.4064181
   0.1653084   0.1658498   0.1653084   0.1658498   0.1658498   0.1666584
   0.1658498   0.1666584
 SUMMED SPIN DENSITY           0.00000000
 TOTAL ATOMIC SPINS  :
   0.6382864  -0.6382863  -0.6382864   0.6382862  -0.6382863   0.6382865
   0.6382862  -0.6382865   0.1222662  -0.0000001  -0.1222661   0.0000001
  -0.1222662  -0.0000001   0.1222662   0.0000001   0.1222662  -0.1222662
  -0.1222661   0.1222662  -0.0000001  -0.0000001   0.0000001   0.0000001
  -0.0026925  -0.0000000   0.0026925   0.0000000  -0.0000000   0.0000000
   0.0000000  -0.0000000
 TTTTTTTTTTTTTTTTTTTTTTTTTTTTTT MOQGAD      TELAPSE     5123.40 TCPU     5086.71
 TTTTTTTTTTTTTTTTTTTTTTTTTTTTTT SHELLXN     TELAPSE     5331.49 TCPU     5293.47
 TTTTTTTTTTTTTTTTTTTTTTTTTTTTTT MONMO3      TELAPSE     5368.30 TCPU     5329.96
 NUMERICALLY INTEGRATED DENSITY    132.0000666721    132.0000666629
 TTTTTTTTTTTTTTTTTTTTTTTTTTTTTT NUMDFT      TELAPSE     5372.60 TCPU     5334.22
 CYC  20 ETOT(AU) -1.842453058037E+03 DETOT  1.73E-11 tst  2.18E-14 PX  2.73E-07
 CYCLE 20 WAVE FUNCTION SAVED IN FORTRAN UNIT 79
 TTTTTTTTTTTTTTTTTTTTTTTTTTTTTT DIIS        TELAPSE     5374.51 TCPU     5336.04
 DIIS TEST: 0.48956E-10 AT SCF   CYCLE  20 - DIIS ACTIVE - HISTORY:    20 CYCLES
 TTTTTTTTTTTTTTTTTTTTTTTTTTTTTT FDIK        TELAPSE     5376.93 TCPU     5338.42
 SPIN LOCKING: NO ENERGY GAP COMPUTED
 TTTTTTTTTTTTTTTTTTTTTTTTTTTTTT PDIG        TELAPSE     5379.01 TCPU     5340.48
 CHARGE NORMALIZATION FACTOR   1.00000000
 TOTAL ATOMIC CHARGES:
  18.0016525  18.0016519  18.0016524  18.0016519  18.0016519  18.0016526
  18.0016519  18.0016526   7.4260133   7.4064181   7.4260133   7.4064181
   7.4260130   7.4064180   7.4260130   7.4064181   7.4260133   7.4260130
   7.4260133   7.4260130   7.4064181   7.4064180   7.4064181   7.4064181
   0.1653083   0.1658498   0.1653084   0.1658498   0.1658498   0.1666584
   0.1658498   0.1666584
 SUMMED SPIN DENSITY           0.00000000
 TOTAL ATOMIC SPINS  :
   0.6382865  -0.6382864  -0.6382864   0.6382863  -0.6382864   0.6382866
   0.6382863  -0.6382865   0.1222661  -0.0000000  -0.1222661   0.0000001
  -0.1222661  -0.0000001   0.1222661   0.0000001   0.1222661  -0.1222661
  -0.1222661   0.1222661  -0.0000000  -0.0000001   0.0000001   0.0000001
  -0.0026925  -0.0000000   0.0026925   0.0000000  -0.0000000  -0.0000000
   0.0000000  -0.0000000
 TTTTTTTTTTTTTTTTTTTTTTTTTTTTTT MOQGAD      TELAPSE     5379.11 TCPU     5340.59
 TTTTTTTTTTTTTTTTTTTTTTTTTTTTTT SHELLXN     TELAPSE     5587.67 TCPU     5547.26
 +++ ENERGIES IN A.U. +++
 ::: EXT EL-POLE                                  -9.3507280260227E+03
 ::: EXT EL-SPHEROPOLE                             4.5366547735585E+01
 ::: BIELET ZONE E-E                               1.0186420557827E+04
 ::: TOTAL E-E                                     8.8105907953949E+02
 ::: TOTAL E-N + N-E                              -2.9270873821814E+03
 ::: TOTAL N-N                                    -8.2862678999312E+02
 ::: KINETIC ENERGY                                1.1952541742063E+03
 ::: PSEUDO TOTAL   ENERGY                        -1.6794009184288E+03
 ::: VIRIAL COEFFICIENT                            8.3158092758229E-01
 TTTTTTTTTTTTTTTTTTTTTTTTTTTTTT MONMO3      TELAPSE     5623.51 TCPU     5582.94
 NUMERICALLY INTEGRATED DENSITY    132.0000666721    132.0000666629
 TTTTTTTTTTTTTTTTTTTTTTTTTTTTTT NUMDFT      TELAPSE     5627.49 TCPU     5586.93
 CYC  21 ETOT(AU) -1.842453058037E+03 DETOT  4.25E-11 tst  5.46E-15 PX  2.73E-07

 == SCF ENDED - CONVERGENCE ON ENERGY      E(AU) -1.8424530580373E+03 CYCLES  21


 ENERGY EXPRESSION=HARTREE+FOCK EXCH*0.25000+(PBE        EXCH)*0.75000+PBE        CORR

 FINITE TEMPERATURE DFT CALCULATION 
 TEMPERATURE      (T)    1.000000000000E-13 HARTREE 
 ENERGY           (E)   -1.842453058037E+03
 FREE ENERGY      (F)   -1.842453058037E+03
 ELECTRON ENTROPY (S)    0.000000000000E+00
 (E(T)+F(T))/2    (E0)  -1.842453058037E+03


 TOTAL ENERGY(DFT)(AU)( 21) -1.8424530580373E+03 DE 4.3E-11 tester 5.5E-15
 TTTTTTTTTTTTTTTTTTTTTTTTTTTTTT EDFT        TELAPSE     5627.50 TCPU     5586.94
 EIGENVECTORS IN FORTRAN UNIT 10
 TTTTTTTTTTTTTTTTTTTTTTTTTTTTTT END         TELAPSE     5630.34 TCPU     5589.75
 EEEEEEEEEE TERMINATION  DATE 24 03 2018 TIME 17:44:22.0
NODE    0 CPU TIME =      5589.754
NODE    1 CPU TIME =      5594.471
NODE    2 CPU TIME =      5600.807
NODE    3 CPU TIME =      5594.550
NODE    4 CPU TIME =      5599.698
NODE    5 CPU TIME =      5588.041
NODE    6 CPU TIME =      5598.935
NODE    7 CPU TIME =      5593.467
NODE    8 CPU TIME =      5595.562
NODE    9 CPU TIME =      5597.349
NODE   10 CPU TIME =      5596.151
NODE   11 CPU TIME =      5587.722
NODE   12 CPU TIME =      5591.893
NODE   13 CPU TIME =      5589.319
NODE   14 CPU TIME =      5600.910
NODE   15 CPU TIME =      5602.962
NODE   16 CPU TIME =      5592.468
NODE   17 CPU TIME =      5599.102
NODE   18 CPU TIME =      5595.090
NODE   19 CPU TIME =      5602.100
NODE   20 CPU TIME =      5597.110
NODE   21 CPU TIME =      5594.805
NODE   22 CPU TIME =      5601.230
NODE   23 CPU TIME =      5597.630
    TOTAL CPU TIME =    134301.127
