--------------------------------------------------------------------------
[[30390,1],2]: A high-performance Open MPI point-to-point messaging module
was unable to find any relevant network interfaces:

Module: OpenFabrics (openib)
  Host: golub219

Another transport will be used instead, although this may result in
lower performance.
--------------------------------------------------------------------------
 PROCESS            3  OF           20  WORKING
 PROCESS            4  OF           20  WORKING
 PROCESS            7  OF           20  WORKING
 PROCESS            9  OF           20  WORKING
 PROCESS           10  OF           20  WORKING
 PROCESS           15  OF           20  WORKING
 PROCESS           18  OF           20  WORKING
 PROCESS           19  OF           20  WORKING
 PROCESS            6  OF           20  WORKING
 PROCESS            0  OF           20  WORKING
 PROCESS            2  OF           20  WORKING
 PROCESS            5  OF           20  WORKING
 PROCESS           13  OF           20  WORKING
 PROCESS           17  OF           20  WORKING
 PROCESS            1  OF           20  WORKING

         
 *******************************************************************************
 *                                                                             *
 *                               CRYSTAL17                                     *
 *                      public : 1.0.1 - Jun 21st, 2017                        *
 *                       HTTP://WWW.CRYSTAL.UNITO.IT                           *
 *                                                                             *
 *                              MAIN AUTHORS                                   *
 *                                                                             *
 *  R. DOVESI(1,11), V.R. SAUNDERS(2), C. ROETTI(1,11), R. ORLANDO(1,11),      *
 PROCESS           11  OF           20  WORKING
 *  C.M. ZICOVICH-WILSON(1,3), F. PASCALE(4), B. CIVALLERI(1,11),              *
 *  K. DOLL(5), N.M. HARRISON(2,6), I.J. BUSH(7), Ph. D'ARCO(8),               *
 *  M. LLUNELL(9), M. CAUSA'(10), Y. NOEL(8), L. MASCHIO(1,11), A. ERBA(1,11)  *
 *  M. RE'RAT(14), S. CASASSA(1,11)                                            *
 *                                                                             *
 *        CONTRIBUTIONS TO THE CODE HAVE ALSO BEEN GIVEN BY                    *
 *                                                                             *
 *  M. FERRABONE(1,11), M. DE LA PIERRE(1,11), M. FERRERO(1,11),               *
 *  J. BAIMA(1,11), E. ALBANESE(1,11), M.F. PEINTINGER(12), R. BAST(13),       *
 *  B. KIRTMAN(15), V. LACIVITA(1,11), R. DEMICHELIS(1,16)                     *
 *  G. BRANDEBURG(17), S. SALUSTRO(1,11), G. SANSONE(1,11)                     *
 *  M.T. RUGGIERO(18)                                                          *
 *                                                                             *
 * (1) THEORETICAL CHEMISTRY GROUP - UNIVERSITA' DI TORINO - TORINO (ITALY)    *

 * (2) COMPUTATIONAL SCIENCE & ENGINEERING DEPARTMENT - STFC DARESBURY (UK)    *
 * (3) UNIVERSIDAD AUTONOMA DEL ESTADO DE MORELOS - CUERNAVACA (MEXICO)        *
 * (4) UNIVERSITE' DE LORRAINE - NANCY (FRANCE)                                *
 * (5) UNIVERSITAET STUTTGART- STUTTGART (GERMANY)                             *
 * (6) IMPERIAL COLLEGE - LONDON (UK)                                          *
 * (7) OXFORD E-RESEARCH CENTRE - OXFORD (UK)                                  *
 * (8) UPMC - SORBONNE UNIVERSITES - PARIS (FRANCE)                            *
 * (9) UNIVERSIDAD DE BARCELONA - BARCELONA (SPAIN)                            *
 *(10) UNIVERSITA' DI NAPOLI "FEDERICO II" - NAPOLI (ITALY)                    *
 *(11) NIS - NANOSTRUCTURED INTERFACES AND SURFACES - TORINO (ITALY)           *
 *(12) MPI FUER CHEMISCHE ENERGIEKONVERSION - MUELHEIM AN DER RUHR (GERMANY)   *
 *(13) UNIVERSITY OF TROMSO - TROMSO (NORWAY)                                  *
 *(14) UNIVERSITE' DE PAU ET DES PAYS DE L'ADOUR - PAU (FRANCE)                *
 *(15) UNIVERSITY OF CALIFORNIA SANTA BARBARA - SANTA BARBARA (USA)            *
 *(16) CURTIN UNIVERSITY - PERTH (AUSTRALIA)                                   *
 *(17) UNIVERSITY COLLEGE LONDON - LONDON (UK)                                 *
 *(18) CAMBRIDGE UNIVERSITY - CAMBRIDGE (UK)                                   *
 *                                                                             *
 *******************************************************************************
 EEEEEEEEEE STARTING  DATE 27 06 2018 TIME 11:17:07.5
 PROCESS           12  OF           20  WORKING
 PROCESS           14  OF           20  WORKING
 Generated by CrystalWriter                                                      

 CRYSTAL CALCULATION
 (INPUT ACCORDING TO THE INTERNATIONAL TABLES FOR X-RAY CRYSTALLOGRAPHY)
 CRYSTAL FAMILY                       :  TETRAGONAL  
 CRYSTAL CLASS  (GROTH - 1921)        :  DITETRAGONAL DIPYRAMIDAL             

 SPACE GROUP (CENTROSYMMETRIC)        :  P 4/M M M       

 LATTICE PARAMETERS  (ANGSTROMS AND DEGREES) - CONVENTIONAL CELL
        A           B           C        ALPHA        BETA       GAMMA
     3.92785     3.92785     3.43380    90.00000    90.00000    90.00000


 NUMBER OF IRREDUCIBLE ATOMS IN THE CONVENTIONAL CELL:    4

 INPUT COORDINATES

 ATOM AT. N.              COORDINATES
   1 229     5.000000000000E-01  5.000000000000E-01  0.000000000000E+00
   2 208     0.000000000000E+00  5.000000000000E-01  0.000000000000E+00
   3 208     5.000000000000E-01  0.000000000000E+00  0.000000000000E+00
   4 238     0.000000000000E+00  0.000000000000E+00  5.000000000000E-01

 *******************************************************************************

 << INFORMATION >>: FROM NOW ON, ALL COORDINATES REFER TO THE PRIMITIVE CELL

 *******************************************************************************

 LATTICE PARAMETERS  (ANGSTROMS AND DEGREES) - PRIMITIVE CELL
       A          B          C        ALPHA      BETA     GAMMA        VOLUME
    3.92785    3.92785    3.43380    90.00000  90.00000  90.00000     52.976686

 INPUT LIST - ATOM N.   3 NOT IRREDUCIBLE

 COORDINATES OF THE EQUIVALENT ATOMS (FRACTIONAL UNITS)

 N. ATOM EQUIV AT. N.          X                  Y                  Z

   1   1   1  229 CU   -5.00000000000E-01 -5.00000000000E-01  0.00000000000E+00

   2   2   1  208 O     0.00000000000E+00 -5.00000000000E-01  0.00000000000E+00
   3   2   2  208 O     5.00000000000E-01  0.00000000000E+00  0.00000000000E+00


 NUMBER OF SYMMETRY OPERATORS         :   16
 *******************************************************************************
 * GEOMETRY EDITING - INPUT COORDINATES ARE GIVEN IN ANGSTROM         
 *******************************************************************************

 GEOMETRY NOW FULLY CONSISTENT WITH THE GROUP

 NO SYMMOPS WITH FINITE TRANSLATIONAL COMPONENT

 *******************************************************************************
 * SUPERCELL OPTION
 *******************************************************************************

 INFORMATION **** GEXPAD **** SUPERCELL VOLUME NEGATIVE ? - SIGN OF EXPANSION MATRIX REVERSED

        EXPANSION MATRIX OF PRIMITIVE CELL
 E1    -2.000    -2.000     0.000
 E2     2.000    -2.000     0.000
 E3     0.000     0.000     1.000

 NUMBER OF ATOMS PER SUPERCELL    32

        DIRECT LATTICE VECTORS COMPONENTS (ANGSTROM)
 B1    -7.856    -7.856     0.000
 B2     7.856    -7.856     0.000
 B3     0.000     0.000     3.434

 LATTICE PARAMETERS  (ANGSTROM AND DEGREES)
       A          B          C         ALPHA     BETA     GAMMA        VOLUME
   11.10964   11.10964    3.43380    90.00000  90.00000  90.00000    423.813486


 **** ATOMS BELONGING TO THE SUPERCELL
 LABEL AT.NO.      COORDINATES (ANGSTROM AND FRACTIONAL)
     1   229     5.8918    -1.9639     0.0000    -0.2500     0.5000     0.0000
     2   229     5.8918     1.9639     0.0000    -0.5000     0.2500     0.0000
     3   229    -1.9639    -1.9639     0.0000     0.2500     0.0000     0.0000
     4   229    -1.9639     1.9639     0.0000     0.0000    -0.2500     0.0000
     5   229     1.9639     5.8918     0.0000    -0.5000    -0.2500     0.0000
     6   229     1.9639    -5.8918     0.0000     0.2500     0.5000     0.0000
     7   229     1.9639    -1.9639     0.0000     0.0000     0.2500     0.0000
     8   229     1.9639     1.9639     0.0000    -0.2500     0.0000     0.0000
     9   208    -0.0000     5.8918     0.0000    -0.3750    -0.3750     0.0000
    10   208    -0.0000    -5.8918     0.0000     0.3750     0.3750     0.0000
    11   208     0.0000    -1.9639     0.0000     0.1250     0.1250     0.0000
    12   208     0.0000     1.9639     0.0000    -0.1250    -0.1250     0.0000
    13   208    -3.9279    -1.9639     0.0000     0.3750    -0.1250     0.0000
    14   208    -3.9279     1.9639     0.0000     0.1250    -0.3750     0.0000
    15   208     3.9278    -1.9639     0.0000    -0.1250     0.3750     0.0000
    16   208     3.9278     1.9639     0.0000    -0.3750     0.1250     0.0000
    17   208     5.8918     0.0000     0.0000    -0.3750     0.3750     0.0000
    18   208    -1.9639    -3.9278     0.0000     0.3750     0.1250     0.0000
    19   208    -1.9639     0.0000     0.0000     0.1250    -0.1250     0.0000
    20   208    -1.9639     3.9278     0.0000    -0.1250    -0.3750     0.0000
    21   208    -5.8918     0.0000     0.0000     0.3750    -0.3750     0.0000
    22   208     1.9639    -3.9278     0.0000     0.1250     0.3750     0.0000
    23   208     1.9639     0.0000     0.0000    -0.1250     0.1250     0.0000
    24   208     1.9639     3.9278     0.0000    -0.3750    -0.1250     0.0000
    25   238     7.8557     0.0000     1.7169    -0.5000     0.5000     0.5000
    26   238     0.0000    -3.9278     1.7169     0.2500     0.2500     0.5000
    27   238     0.0000     0.0000     1.7169     0.0000     0.0000     0.5000
    28   238     0.0000     3.9278     1.7169    -0.2500    -0.2500     0.5000
    29   238    -3.9279     0.0000     1.7169     0.2500    -0.2500     0.5000
    30   238     3.9278    -3.9278     1.7169     0.0000     0.5000     0.5000
    31   238     3.9278     0.0000     1.7169    -0.2500     0.2500     0.5000
    32   238     3.9278     3.9278     1.7169    -0.5000     0.0000     0.5000

 **************************** SUPERCELL GENERATED ****************************
 *********************************************************************
                        ATOMIC SITE SYMMETRIES
 *********************************************************************


 ATOM   1 ATOMIC NUMBER 229 - NUMBER OF SYMMOPS WHICH DO NOT MOVE THE ATOM   4
 SEQUENCE NUMBERS OF THE SYMMOPS
    1    6   10   13
 NUMBER OF ATOMS EQUIVALENT BY SYMMETRY    3
 SEQUENCE NUMBERS OF THESE ATOMS
    6    2    5
 SEQUENCE NUMBERS OF THE CORRESPONDING SYMMOPS
    2    3    4


 ATOM   2 ATOMIC NUMBER 229 - NUMBER OF SYMMOPS WHICH DO NOT MOVE THE ATOM   4
 SEQUENCE NUMBERS OF THE SYMMOPS
    1    5   10   14
 NUMBER OF ATOMS EQUIVALENT BY SYMMETRY    3
 SEQUENCE NUMBERS OF THESE ATOMS
    5    1    6
 SEQUENCE NUMBERS OF THE CORRESPONDING SYMMOPS
    2    3    4


 ATOM   3 ATOMIC NUMBER 229 - NUMBER OF SYMMOPS WHICH DO NOT MOVE THE ATOM   4
 SEQUENCE NUMBERS OF THE SYMMOPS
    1    6   10   13
 NUMBER OF ATOMS EQUIVALENT BY SYMMETRY    3
 SEQUENCE NUMBERS OF THESE ATOMS
    8    4    7
 SEQUENCE NUMBERS OF THE CORRESPONDING SYMMOPS
    2    3    4


 ATOM   4 ATOMIC NUMBER 229 - NUMBER OF SYMMOPS WHICH DO NOT MOVE THE ATOM   4
 SEQUENCE NUMBERS OF THE SYMMOPS
    1    5   10   14
 NUMBER OF ATOMS EQUIVALENT BY SYMMETRY    3
 SEQUENCE NUMBERS OF THESE ATOMS
    7    3    8
 SEQUENCE NUMBERS OF THE CORRESPONDING SYMMOPS
    2    3    4


 ATOM   5 ATOMIC NUMBER 229 - NUMBER OF SYMMOPS WHICH DO NOT MOVE THE ATOM   4
 SEQUENCE NUMBERS OF THE SYMMOPS
    1    5   10   14
 NUMBER OF ATOMS EQUIVALENT BY SYMMETRY    3
 SEQUENCE NUMBERS OF THESE ATOMS
    2    6    1
 SEQUENCE NUMBERS OF THE CORRESPONDING SYMMOPS
    2    3    4


 ATOM   6 ATOMIC NUMBER 229 - NUMBER OF SYMMOPS WHICH DO NOT MOVE THE ATOM   4
 SEQUENCE NUMBERS OF THE SYMMOPS
    1    6   10   13
 NUMBER OF ATOMS EQUIVALENT BY SYMMETRY    3
 SEQUENCE NUMBERS OF THESE ATOMS
    1    5    2
 SEQUENCE NUMBERS OF THE CORRESPONDING SYMMOPS
    2    3    4


 ATOM   7 ATOMIC NUMBER 229 - NUMBER OF SYMMOPS WHICH DO NOT MOVE THE ATOM   4
 SEQUENCE NUMBERS OF THE SYMMOPS
    1    5   10   14
 NUMBER OF ATOMS EQUIVALENT BY SYMMETRY    3
 SEQUENCE NUMBERS OF THESE ATOMS
    4    8    3
 SEQUENCE NUMBERS OF THE CORRESPONDING SYMMOPS
    2    3    4


 ATOM   8 ATOMIC NUMBER 229 - NUMBER OF SYMMOPS WHICH DO NOT MOVE THE ATOM   4
 SEQUENCE NUMBERS OF THE SYMMOPS
    1    6   10   13
 NUMBER OF ATOMS EQUIVALENT BY SYMMETRY    3
 SEQUENCE NUMBERS OF THESE ATOMS
    3    7    4
 SEQUENCE NUMBERS OF THE CORRESPONDING SYMMOPS
    2    3    4


 ATOM   9 ATOMIC NUMBER 208 - NUMBER OF SYMMOPS WHICH DO NOT MOVE THE ATOM   4
 SEQUENCE NUMBERS OF THE SYMMOPS
    1    4   10   11
 NUMBER OF ATOMS EQUIVALENT BY SYMMETRY    3
 SEQUENCE NUMBERS OF THESE ATOMS
   10   21   17
 SEQUENCE NUMBERS OF THE CORRESPONDING SYMMOPS
    2    5    6


 ATOM  10 ATOMIC NUMBER 208 - NUMBER OF SYMMOPS WHICH DO NOT MOVE THE ATOM   4
 SEQUENCE NUMBERS OF THE SYMMOPS
    1    4   10   11
 NUMBER OF ATOMS EQUIVALENT BY SYMMETRY    3
 SEQUENCE NUMBERS OF THESE ATOMS
    9   17   21
 SEQUENCE NUMBERS OF THE CORRESPONDING SYMMOPS
    2    5    6


 ATOM  11 ATOMIC NUMBER 208 - NUMBER OF SYMMOPS WHICH DO NOT MOVE THE ATOM   4
 SEQUENCE NUMBERS OF THE SYMMOPS
    1    4   10   11
 NUMBER OF ATOMS EQUIVALENT BY SYMMETRY    3
 SEQUENCE NUMBERS OF THESE ATOMS
   12   23   19
 SEQUENCE NUMBERS OF THE CORRESPONDING SYMMOPS
    2    5    6


 ATOM  12 ATOMIC NUMBER 208 - NUMBER OF SYMMOPS WHICH DO NOT MOVE THE ATOM   4
 SEQUENCE NUMBERS OF THE SYMMOPS
    1    4   10   11
 NUMBER OF ATOMS EQUIVALENT BY SYMMETRY    3
 SEQUENCE NUMBERS OF THESE ATOMS
   11   19   23
 SEQUENCE NUMBERS OF THE CORRESPONDING SYMMOPS
    2    5    6


 ATOM  13 ATOMIC NUMBER 208 - NUMBER OF SYMMOPS WHICH DO NOT MOVE THE ATOM   2
 SEQUENCE NUMBERS OF THE SYMMOPS
    1   10
 NUMBER OF ATOMS EQUIVALENT BY SYMMETRY    7
 SEQUENCE NUMBERS OF THESE ATOMS
   16   14   15   24   18   20   22
 SEQUENCE NUMBERS OF THE CORRESPONDING SYMMOPS
    2    3    4    5    6    7    8


 ATOM  14 ATOMIC NUMBER 208 - NUMBER OF SYMMOPS WHICH DO NOT MOVE THE ATOM   2
 SEQUENCE NUMBERS OF THE SYMMOPS
    1   10
 NUMBER OF ATOMS EQUIVALENT BY SYMMETRY    7
 SEQUENCE NUMBERS OF THESE ATOMS
   15   13   16   20   22   24   18
 SEQUENCE NUMBERS OF THE CORRESPONDING SYMMOPS
    2    3    4    5    6    7    8


 ATOM  15 ATOMIC NUMBER 208 - NUMBER OF SYMMOPS WHICH DO NOT MOVE THE ATOM   2
 SEQUENCE NUMBERS OF THE SYMMOPS
    1   10
 NUMBER OF ATOMS EQUIVALENT BY SYMMETRY    7
 SEQUENCE NUMBERS OF THESE ATOMS
   14   16   13   22   20   18   24
 SEQUENCE NUMBERS OF THE CORRESPONDING SYMMOPS
    2    3    4    5    6    7    8


 ATOM  16 ATOMIC NUMBER 208 - NUMBER OF SYMMOPS WHICH DO NOT MOVE THE ATOM   2
 SEQUENCE NUMBERS OF THE SYMMOPS
    1   10
 NUMBER OF ATOMS EQUIVALENT BY SYMMETRY    7
 SEQUENCE NUMBERS OF THESE ATOMS
   13   15   14   18   24   22   20
 SEQUENCE NUMBERS OF THE CORRESPONDING SYMMOPS
    2    3    4    5    6    7    8


 ATOM  17 ATOMIC NUMBER 208 - NUMBER OF SYMMOPS WHICH DO NOT MOVE THE ATOM   4
 SEQUENCE NUMBERS OF THE SYMMOPS
    1    3   10   12
 NUMBER OF ATOMS EQUIVALENT BY SYMMETRY    3
 SEQUENCE NUMBERS OF THESE ATOMS
   21   10    9
 SEQUENCE NUMBERS OF THE CORRESPONDING SYMMOPS
    2    5    6


 ATOM  18 ATOMIC NUMBER 208 - NUMBER OF SYMMOPS WHICH DO NOT MOVE THE ATOM   2
 SEQUENCE NUMBERS OF THE SYMMOPS
    1   10
 NUMBER OF ATOMS EQUIVALENT BY SYMMETRY    7
 SEQUENCE NUMBERS OF THESE ATOMS
   24   20   22   16   13   14   15
 SEQUENCE NUMBERS OF THE CORRESPONDING SYMMOPS
    2    3    4    5    6    7    8


 ATOM  19 ATOMIC NUMBER 208 - NUMBER OF SYMMOPS WHICH DO NOT MOVE THE ATOM   4
 SEQUENCE NUMBERS OF THE SYMMOPS
    1    3   10   12
 NUMBER OF ATOMS EQUIVALENT BY SYMMETRY    3
 SEQUENCE NUMBERS OF THESE ATOMS
   23   12   11
 SEQUENCE NUMBERS OF THE CORRESPONDING SYMMOPS
    2    5    6


 ATOM  20 ATOMIC NUMBER 208 - NUMBER OF SYMMOPS WHICH DO NOT MOVE THE ATOM   2
 SEQUENCE NUMBERS OF THE SYMMOPS
    1   10
 NUMBER OF ATOMS EQUIVALENT BY SYMMETRY    7
 SEQUENCE NUMBERS OF THESE ATOMS
   22   18   24   14   15   16   13
 SEQUENCE NUMBERS OF THE CORRESPONDING SYMMOPS
    2    3    4    5    6    7    8


 ATOM  21 ATOMIC NUMBER 208 - NUMBER OF SYMMOPS WHICH DO NOT MOVE THE ATOM   4
 SEQUENCE NUMBERS OF THE SYMMOPS
    1    3   10   12
 NUMBER OF ATOMS EQUIVALENT BY SYMMETRY    3
 SEQUENCE NUMBERS OF THESE ATOMS
   17    9   10
 SEQUENCE NUMBERS OF THE CORRESPONDING SYMMOPS
    2    5    6


 ATOM  22 ATOMIC NUMBER 208 - NUMBER OF SYMMOPS WHICH DO NOT MOVE THE ATOM   2
 SEQUENCE NUMBERS OF THE SYMMOPS
    1   10
 NUMBER OF ATOMS EQUIVALENT BY SYMMETRY    7
 SEQUENCE NUMBERS OF THESE ATOMS
   20   24   18   15   14   13   16
 SEQUENCE NUMBERS OF THE CORRESPONDING SYMMOPS
    2    3    4    5    6    7    8


 ATOM  23 ATOMIC NUMBER 208 - NUMBER OF SYMMOPS WHICH DO NOT MOVE THE ATOM   4
 SEQUENCE NUMBERS OF THE SYMMOPS
    1    3   10   12
 NUMBER OF ATOMS EQUIVALENT BY SYMMETRY    3
 SEQUENCE NUMBERS OF THESE ATOMS
   19   11   12
 SEQUENCE NUMBERS OF THE CORRESPONDING SYMMOPS
    2    5    6


 ATOM  24 ATOMIC NUMBER 208 - NUMBER OF SYMMOPS WHICH DO NOT MOVE THE ATOM   2
 SEQUENCE NUMBERS OF THE SYMMOPS
    1   10
 NUMBER OF ATOMS EQUIVALENT BY SYMMETRY    7
 SEQUENCE NUMBERS OF THESE ATOMS
   18   22   20   13   16   15   14
 SEQUENCE NUMBERS OF THE CORRESPONDING SYMMOPS
    2    3    4    5    6    7    8


 ATOM  25 ATOMIC NUMBER 238 - NUMBER OF SYMMOPS WHICH DO NOT MOVE THE ATOM  16
 SEQUENCE NUMBERS OF THE SYMMOPS
    1    2    3    4    5    6    7    8    9   10   11   12   13   14   15
   16
 NO EQUIVALENT ATOMS


 ATOM  26 ATOMIC NUMBER 238 - NUMBER OF SYMMOPS WHICH DO NOT MOVE THE ATOM   4
 SEQUENCE NUMBERS OF THE SYMMOPS
    1    4   10   11
 NUMBER OF ATOMS EQUIVALENT BY SYMMETRY    3
 SEQUENCE NUMBERS OF THESE ATOMS
   28   31   29
 SEQUENCE NUMBERS OF THE CORRESPONDING SYMMOPS
    2    5    6


 ATOM  27 ATOMIC NUMBER 238 - NUMBER OF SYMMOPS WHICH DO NOT MOVE THE ATOM  16
 SEQUENCE NUMBERS OF THE SYMMOPS
    1    2    3    4    5    6    7    8    9   10   11   12   13   14   15
   16
 NO EQUIVALENT ATOMS


 ATOM  28 ATOMIC NUMBER 238 - NUMBER OF SYMMOPS WHICH DO NOT MOVE THE ATOM   4
 SEQUENCE NUMBERS OF THE SYMMOPS
    1    4   10   11
 NUMBER OF ATOMS EQUIVALENT BY SYMMETRY    3
 SEQUENCE NUMBERS OF THESE ATOMS
   26   29   31
 SEQUENCE NUMBERS OF THE CORRESPONDING SYMMOPS
    2    5    6


 ATOM  29 ATOMIC NUMBER 238 - NUMBER OF SYMMOPS WHICH DO NOT MOVE THE ATOM   4
 SEQUENCE NUMBERS OF THE SYMMOPS
    1    3   10   12
 NUMBER OF ATOMS EQUIVALENT BY SYMMETRY    3
 SEQUENCE NUMBERS OF THESE ATOMS
   31   28   26
 SEQUENCE NUMBERS OF THE CORRESPONDING SYMMOPS
    2    5    6


 ATOM  30 ATOMIC NUMBER 238 - NUMBER OF SYMMOPS WHICH DO NOT MOVE THE ATOM   8
 SEQUENCE NUMBERS OF THE SYMMOPS
    1    2    5    6    9   10   13   14
 NUMBER OF ATOMS EQUIVALENT BY SYMMETRY    1
 SEQUENCE NUMBERS OF THESE ATOMS
   32
 SEQUENCE NUMBERS OF THE CORRESPONDING SYMMOPS
    3


 ATOM  31 ATOMIC NUMBER 238 - NUMBER OF SYMMOPS WHICH DO NOT MOVE THE ATOM   4
 SEQUENCE NUMBERS OF THE SYMMOPS
    1    3   10   12
 NUMBER OF ATOMS EQUIVALENT BY SYMMETRY    3
 SEQUENCE NUMBERS OF THESE ATOMS
   29   26   28
 SEQUENCE NUMBERS OF THE CORRESPONDING SYMMOPS
    2    5    6


 ATOM  32 ATOMIC NUMBER 238 - NUMBER OF SYMMOPS WHICH DO NOT MOVE THE ATOM   8
 SEQUENCE NUMBERS OF THE SYMMOPS
    1    2    5    6    9   10   13   14
 NUMBER OF ATOMS EQUIVALENT BY SYMMETRY    1
 SEQUENCE NUMBERS OF THESE ATOMS
   30
 SEQUENCE NUMBERS OF THE CORRESPONDING SYMMOPS
    3

 *****   16 SYMMOPS - TRANSLATORS IN ANGSTROM
 ***** MATRICES AND TRANSLATORS IN THE CARTESIAN REFERENCE FRAME

 ORDER   : ORDER OF THE OPERATOR

 TRANSLA : REAL TRANSLATION (WITHOUT ORIGIN SHIFT) IN CARTESIAN COORDINATES

 uvw/hkl : ORIENTATION OF THE OPERATOR IN CARTESIAN COORDINATES

 LOCATED : ORIGIN OF THE OPERATOR IN CARTESIAN COORDINATES

   NO.   1 INVERSE   1    ORDER   1        NO.   2 INVERSE   2    ORDER   2
    1.000   0.000   0.000     0.000        -1.000   0.000   0.000     0.000
    0.000   1.000   0.000     0.000         0.000  -1.000   0.000     0.000
    0.000   0.000   1.000     0.000         0.000   0.000   1.000     0.000
             OPERATION E(   1)                       OPERATION C(   2)
 DETERMINANT 1.; ROTATION(DEG)   0.      DETERMINANT 1.; ROTATION(DEG) 180.
 TRANSLA (  0.000    0.000    0.000)     TRANSLA (  0.000    0.000    0.000)
 uvw/hkl (  0.000    0.000    0.000)     uvw/hkl (  0.000    0.000    4.000)
 LOCATED (  0.000    0.000    0.000)     LOCATED (  0.000    0.000    0.000)

   NO.   3 INVERSE   3    ORDER   2        NO.   4 INVERSE   4    ORDER   2
    1.000   0.000   0.000     0.000        -1.000   0.000   0.000     0.000
    0.000  -1.000   0.000     0.000         0.000   1.000   0.000     0.000
    0.000   0.000  -1.000     0.000         0.000   0.000  -1.000     0.000
             OPERATION C(   2)                       OPERATION C(   2)
 DETERMINANT 1.; ROTATION(DEG) 180.      DETERMINANT 1.; ROTATION(DEG) 180.
 TRANSLA (  0.000    0.000    0.000)     TRANSLA (  0.000    0.000    0.000)
 uvw/hkl (  4.000    0.000    0.000)     uvw/hkl (  0.000   -4.000    0.000)
 LOCATED (  0.000    0.000    0.000)     LOCATED (  0.000    0.000    0.000)

   NO.   5 INVERSE   5    ORDER   2        NO.   6 INVERSE   6    ORDER   2
    0.000  -1.000   0.000     0.000         0.000   1.000   0.000     0.000
   -1.000   0.000   0.000     0.000         1.000   0.000   0.000     0.000
    0.000   0.000  -1.000     0.000         0.000   0.000  -1.000     0.000
             OPERATION C(   2)                       OPERATION C(   2)
 DETERMINANT 1.; ROTATION(DEG) 180.      DETERMINANT 1.; ROTATION(DEG) 180.
 TRANSLA (  0.000    0.000    0.000)     TRANSLA (  0.000    0.000    0.000)
 uvw/hkl (  2.000   -2.000    0.000)     uvw/hkl ( -2.000   -2.000    0.000)
 LOCATED (  0.000    0.000    0.000)     LOCATED (  0.000    0.000    0.000)

   NO.   7 INVERSE   8    ORDER   4        NO.   8 INVERSE   7    ORDER   4
    0.000   1.000   0.000     0.000         0.000  -1.000   0.000     0.000
   -1.000   0.000   0.000     0.000         1.000   0.000   0.000     0.000
    0.000   0.000   1.000     0.000         0.000   0.000   1.000     0.000
             OPERATION C(   4)                       OPERATION C(   4)
 DETERMINANT 1.; ROTATION(DEG)  90.      DETERMINANT 1.; ROTATION(DEG)  90.
 TRANSLA (  0.000    0.000    0.000)     TRANSLA (  0.000    0.000    0.000)
 uvw/hkl (  0.000    0.000    2.000)     uvw/hkl (  0.000    0.000    2.000)
 LOCATED (  0.000    0.000    0.000)     LOCATED (  0.000    0.000    0.000)

   NO.   9 INVERSE   9    ORDER   2        NO.  10 INVERSE  10    ORDER   2
   -1.000   0.000   0.000     0.000         1.000   0.000   0.000     0.000
    0.000  -1.000   0.000     0.000         0.000   1.000   0.000     0.000
    0.000   0.000  -1.000     0.000         0.000   0.000  -1.000     0.000
             OPERATION I(   2)                       OPERATION M(   2)
 DETERMINANT-1.; ROTATION(DEG) 180.      DETERMINANT-1.; ROTATION(DEG)   0.
 TRANSLA (  0.000    0.000    0.000)     TRANSLA (  0.000    0.000    0.000)
 uvw/hkl (  0.000    0.000    0.000)     uvw/hkl (  0.000    0.000   -2.000)
 LOCATED (  0.000    0.000    0.000)     LOCATED (  0.000    0.000    0.000)

   NO.  11 INVERSE  11    ORDER   2        NO.  12 INVERSE  12    ORDER   2
   -1.000   0.000   0.000     0.000         1.000   0.000   0.000     0.000
    0.000   1.000   0.000     0.000         0.000  -1.000   0.000     0.000
    0.000   0.000   1.000     0.000         0.000   0.000   1.000     0.000
             OPERATION M(   2)                       OPERATION M(   2)
 DETERMINANT-1.; ROTATION(DEG)   0.      DETERMINANT-1.; ROTATION(DEG)   0.
 TRANSLA (  0.000    0.000    0.000)     TRANSLA (  0.000    0.000    0.000)
 uvw/hkl (  2.000    0.000    0.000)     uvw/hkl (  0.000   -2.000    0.000)
 LOCATED (  0.000    0.000    0.000)     LOCATED (  0.000    0.000    0.000)

   NO.  13 INVERSE  13    ORDER   2        NO.  14 INVERSE  14    ORDER   2
    0.000   1.000   0.000     0.000         0.000  -1.000   0.000     0.000
    1.000   0.000   0.000     0.000        -1.000   0.000   0.000     0.000
    0.000   0.000   1.000     0.000         0.000   0.000   1.000     0.000
             OPERATION M(   2)                       OPERATION M(   2)
 DETERMINANT-1.; ROTATION(DEG)   0.      DETERMINANT-1.; ROTATION(DEG)   0.
 TRANSLA (  0.000    0.000    0.000)     TRANSLA (  0.000    0.000    0.000)
 uvw/hkl (  1.000   -1.000    0.000)     uvw/hkl (  1.000    1.000    0.000)
 LOCATED (  0.000    0.000    0.000)     LOCATED (  0.000    0.000    0.000)

   NO.  15 INVERSE  16    ORDER   4        NO.  16 INVERSE  15    ORDER   4
    0.000  -1.000   0.000     0.000         0.000   1.000   0.000     0.000
    1.000   0.000   0.000     0.000        -1.000   0.000   0.000     0.000
    0.000   0.000  -1.000     0.000         0.000   0.000  -1.000     0.000
             OPERATION S(   4)                       OPERATION S(   4)
 DETERMINANT-1.; ROTATION(DEG)  90.      DETERMINANT-1.; ROTATION(DEG)  90.
 TRANSLA (  0.000    0.000    0.000)     TRANSLA (  0.000    0.000    0.000)
 uvw/hkl (  0.000    0.000    2.000)     uvw/hkl (  0.000    0.000    2.000)
 LOCATED (  0.000    0.000    0.000)     LOCATED (  0.000    0.000    0.000)
 SSSSSSSSSSSSSSSSSSSSSSSSSSSSSSSSSSSSSSSSSSSSSSSSSSSSSSSSSSSSSSSSSSSSSSSSSSSSSS
 REDUCTION OF SYMMETRY - ATOMIC LABELS SET TO (ATOM, AT. N., LABEL)
   1(229) 1;   2(229) 2;   3(229) 3;   4(229) 4;   5(229) 5;   6(229) 6;
   7(229) 7;   8(229) 8;   9(208) 0;  10(208) 0;  11(208) 0;  12(208) 0;
  13(208) 0;  14(208) 0;  15(208) 0;  16(208) 0;  17(208) 0;  18(208) 0;
  19(208) 0;  20(208) 0;  21(208) 0;  22(208) 0;  23(208) 0;  24(208) 0;
  25(238) 0;  26(238) 0;  27(238) 0;  28(238) 0;  29(238) 0;  30(238) 0;
  31(238) 0;  32(238) 0;
 THE NUMBER OF SYMMETRY OPERATORS HAS BEEN REDUCED FROM 16 TO  2
 *******************************************************************************
 PROCESS           16  OF           20  WORKING

 GCALCO - MAX INDICES DIRECT LATTICE VECTOR     9     9    32
 NO.OF VECTORS CREATED 6999 STARS  569 RMAX   168.68580 BOHR

 GEOMETRY FOR WAVE FUNCTION - DIMENSIONALITY OF THE SYSTEM    3
 (NON PERIODIC DIRECTION: LATTICE PARAMETER FORMALLY SET TO 500)
 *******************************************************************************
 LATTICE PARAMETERS (ANGSTROMS AND DEGREES) - BOHR = 0.5291772083 ANGSTROM
 PRIMITIVE CELL - CENTRING CODE 1/1 VOLUME=   423.813486 - DENSITY  5.731 g/cm^3
 PROCESS            8  OF           20  WORKING
         A              B              C           ALPHA      BETA       GAMMA 
    11.10963748    11.10963748     3.43380000    90.000000  90.000000  90.000000
 *******************************************************************************
 ATOMS IN THE ASYMMETRIC UNIT   32 - ATOMS IN THE UNIT CELL:   32
     ATOM                 X/A                 Y/B                 Z/C    
 *******************************************************************************
      1 T 229 CU   -2.500000000000E-01 -5.000000000000E-01  0.000000000000E+00
      2 T 229 CU   -5.000000000000E-01  2.500000000000E-01  0.000000000000E+00
      3 T 229 CU    2.500000000000E-01  0.000000000000E+00  0.000000000000E+00
      4 T 229 CU    0.000000000000E+00 -2.500000000000E-01  0.000000000000E+00
      5 T 229 CU   -5.000000000000E-01 -2.500000000000E-01  0.000000000000E+00
      6 T 229 CU    2.500000000000E-01 -5.000000000000E-01  0.000000000000E+00
      7 T 229 CU    0.000000000000E+00  2.500000000000E-01  0.000000000000E+00
      8 T 229 CU   -2.500000000000E-01  0.000000000000E+00  0.000000000000E+00
      9 T 208 O    -3.750000000000E-01 -3.750000000000E-01  0.000000000000E+00
     10 T 208 O     3.750000000000E-01  3.750000000000E-01  0.000000000000E+00
     11 T 208 O     1.250000000000E-01  1.250000000000E-01  0.000000000000E+00
     12 T 208 O    -1.250000000000E-01 -1.250000000000E-01  0.000000000000E+00
     13 T 208 O     3.750000000000E-01 -1.250000000000E-01  0.000000000000E+00
     14 T 208 O     1.250000000000E-01 -3.750000000000E-01  0.000000000000E+00
     15 T 208 O    -1.250000000000E-01  3.750000000000E-01  0.000000000000E+00
     16 T 208 O    -3.750000000000E-01  1.250000000000E-01  0.000000000000E+00
     17 T 208 O    -3.750000000000E-01  3.750000000000E-01  0.000000000000E+00
     18 T 208 O     3.750000000000E-01  1.250000000000E-01  0.000000000000E+00
     19 T 208 O     1.250000000000E-01 -1.250000000000E-01  0.000000000000E+00
     20 T 208 O    -1.250000000000E-01 -3.750000000000E-01  0.000000000000E+00
     21 T 208 O     3.750000000000E-01 -3.750000000000E-01  0.000000000000E+00
     22 T 208 O     1.250000000000E-01  3.750000000000E-01  0.000000000000E+00
     23 T 208 O    -1.250000000000E-01  1.250000000000E-01  0.000000000000E+00
     24 T 208 O    -3.750000000000E-01 -1.250000000000E-01  0.000000000000E+00
     25 T 238 SR   -5.000000000000E-01 -5.000000000000E-01  5.000000000000E-01
     26 T 238 SR    2.500000000000E-01  2.500000000000E-01  5.000000000000E-01
     27 T 238 SR    0.000000000000E+00  0.000000000000E+00  5.000000000000E-01
     28 T 238 SR   -2.500000000000E-01 -2.500000000000E-01  5.000000000000E-01
     29 T 238 SR    2.500000000000E-01 -2.500000000000E-01  5.000000000000E-01
     30 T 238 SR    0.000000000000E+00 -5.000000000000E-01  5.000000000000E-01
     31 T 238 SR   -2.500000000000E-01  2.500000000000E-01  5.000000000000E-01
     32 T 238 SR   -5.000000000000E-01  0.000000000000E+00  5.000000000000E-01

 T = ATOM BELONGING TO THE ASYMMETRIC UNIT

 ****    2 SYMMOPS - TRANSLATORS IN FRACTIONAL UNITS
 **** MATRICES AND TRANSLATORS IN THE CRYSTALLOGRAPHIC REFERENCE FRAME
   V INV                    ROTATION MATRICES                   TRANSLATORS
   1   1  1.00  0.00  0.00  0.00  1.00  0.00  0.00  0.00  1.00  0.00  0.00  0.00
   2   2  1.00 -0.00  0.00 -0.00  1.00  0.00  0.00  0.00 -1.00  0.00  0.00  0.00

 DIRECT LATTICE VECTORS CARTESIAN COMPONENTS (ANGSTROM)
          X                    Y                    Z
  -0.785570000000E+01  -0.785570000000E+01   0.000000000000E+00
   0.785570000000E+01  -0.785570000000E+01   0.000000000000E+00
   0.000000000000E+00   0.000000000000E+00   0.343380000000E+01


 CARTESIAN COORDINATES - PRIMITIVE CELL
 *******************************************************************************
 *      ATOM          X(ANGSTROM)         Y(ANGSTROM)         Z(ANGSTROM)
 *******************************************************************************
    1   229 CU    5.891775000000E+00 -1.963925000000E+00  0.000000000000E+00
    2   229 CU   -1.963925000000E+00 -5.891775000000E+00  0.000000000000E+00
    3   229 CU   -1.963925000000E+00 -1.963925000000E+00  0.000000000000E+00
    4   229 CU   -1.963925000000E+00  1.963925000000E+00  0.000000000000E+00
    5   229 CU   -5.891775000000E+00 -1.963925000000E+00  0.000000000000E+00
    6   229 CU    1.963925000000E+00 -5.891775000000E+00  0.000000000000E+00
    7   229 CU    1.963925000000E+00 -1.963925000000E+00  0.000000000000E+00
    8   229 CU    1.963925000000E+00  1.963925000000E+00  0.000000000000E+00
    9   208 O    -9.400075532184E-16  5.891775000000E+00  0.000000000000E+00
   10   208 O    -9.400075532184E-16 -5.891775000000E+00  0.000000000000E+00
   11   208 O     0.000000000000E+00 -1.963925000000E+00  0.000000000000E+00
   12   208 O     4.700037766092E-16  1.963925000000E+00  0.000000000000E+00
   13   208 O    -3.927850000000E+00 -1.963925000000E+00  0.000000000000E+00
   14   208 O    -3.927850000000E+00  1.963925000000E+00  0.000000000000E+00
   15   208 O     3.927850000000E+00 -1.963925000000E+00  0.000000000000E+00
   16   208 O     3.927850000000E+00  1.963925000000E+00  0.000000000000E+00
   17   208 O     5.891775000000E+00  9.400075532184E-16  0.000000000000E+00
   18   208 O    -1.963925000000E+00 -3.927850000000E+00  0.000000000000E+00
   19   208 O    -1.963925000000E+00  0.000000000000E+00  0.000000000000E+00
   20   208 O    -1.963925000000E+00  3.927850000000E+00  0.000000000000E+00
   21   208 O    -5.891775000000E+00  1.880015106437E-15  0.000000000000E+00
   22   208 O     1.963925000000E+00 -3.927850000000E+00  0.000000000000E+00
   23   208 O     1.963925000000E+00  4.700037766092E-16  0.000000000000E+00
   24   208 O     1.963925000000E+00  3.927850000000E+00  0.000000000000E+00
   25   238 SR    0.000000000000E+00 -7.855700000000E+00  1.716900000000E+00
   26   238 SR    0.000000000000E+00 -3.927850000000E+00  1.716900000000E+00
   27   238 SR    0.000000000000E+00  0.000000000000E+00  1.716900000000E+00
   28   238 SR    4.700037766092E-16  3.927850000000E+00  1.716900000000E+00
   29   238 SR   -3.927850000000E+00  1.645013218132E-15  1.716900000000E+00
   30   238 SR    3.927850000000E+00 -3.927850000000E+00  1.716900000000E+00
   31   238 SR    3.927850000000E+00  4.700037766092E-16  1.716900000000E+00
   32   238 SR   -3.927850000000E+00 -3.927850000000E+00  1.716900000000E+00

 *******************************************************************************
 *** PSEUDOPOTENTIAL INFORMATION ***
 *******************************************************************************

 ATOMIC NUMBER  29, NUCLEAR CHARGE 19.000, GIVEN IN INPUT       PSEUDOPOTENTIAL
   TYPE       EXPONENT      COEFF.    N      EXPONENT      COEFF.    N
  W0 TMS     6.2514963   19.0000000  -1     6.7272533  118.7784294   1
             6.6102459 -105.8998240   0
  P0 TMS    12.3656871  127.3506942   0
  P1 TMS    11.1607294   71.2298490   0

 ATOMIC NUMBER   8, NUCLEAR CHARGE  6.000, GIVEN IN INPUT       PSEUDOPOTENTIAL
   TYPE       EXPONENT      COEFF.    N      EXPONENT      COEFF.    N
  W0 TMS     9.2979390    6.0000000  -1     8.8649220   55.7876342   1
             8.6292567  -38.8197850   0
  P0 TMS     8.7192445   38.4191413   0

 ATOMIC NUMBER  38, NUCLEAR CHARGE  2.000, GIVEN IN INPUT       PSEUDOPOTENTIAL
   TYPE       EXPONENT      COEFF.    N      EXPONENT      COEFF.    N
  W0 TMS     4.3839388    2.0000000  -1     3.1964983    8.7678775   1
             0.9899150  -14.2552431   0
  P0 TMS     1.2868349  146.8716052   0
  P1 TMS     0.9567448  140.0262284   0
  P2 TMS     1.9483165   24.4454878   0
 INFORMATION **** CHARGED ****  CHARGED CELL - NO TOTAL ENERGY

 NUCLEAR CHARGE  2.640E+02 CHARGE ON SHELLS  2.650E+02
 WARNING **** INPBAS **** UNIT CELL NOT NEUTRAL

 *******************************************************************************
 LOCAL ATOMIC FUNCTIONS BASIS SET
 *******************************************************************************
   ATOM   X(AU)   Y(AU)   Z(AU)  N. TYPE  EXPONENT  S COEF   P COEF   D/F/G COEF
 *******************************************************************************
   1 CU  11.134  -3.711   0.000
                                  1 S  
                                         2.785E+01-1.934E-02 0.000E+00 0.000E+00
                                         2.142E+01 8.861E-02 0.000E+00 0.000E+00
                                         1.054E+01-3.559E-01 0.000E+00 0.000E+00
                                         2.536E+00 5.381E-01 0.000E+00 0.000E+00
                                         1.250E+00 5.111E-01 0.000E+00 0.000E+00
                                         5.998E-01 1.476E-01 0.000E+00 0.000E+00
                                  2 S  
                                         2.785E+01-2.653E-03 0.000E+00 0.000E+00
                                         2.142E+01-7.542E-03 0.000E+00 0.000E+00
                                         1.054E+01 7.976E-02 0.000E+00 0.000E+00
                                         2.536E+00-1.553E-01 0.000E+00 0.000E+00
                                         1.250E+00-2.531E-01 0.000E+00 0.000E+00
                                         5.998E-01-2.817E-02 0.000E+00 0.000E+00
                           3-     5 P  
                                         1.859E+01 0.000E+00 3.652E-03 0.000E+00
                                         1.430E+01 0.000E+00-3.708E-02 0.000E+00
                                         5.631E+00 0.000E+00 2.171E-01 0.000E+00
                                         2.683E+00 0.000E+00 4.410E-01 0.000E+00
                                         1.259E+00 0.000E+00 3.587E-01 0.000E+00
                                         5.741E-01 0.000E+00 1.148E-01 0.000E+00
                                         2.092E-01 0.000E+00 7.316E-03 0.000E+00
                           6-    10 D  
                                         1.579E+01 0.000E+00 0.000E+00 8.422E-02
                                         7.203E+00 0.000E+00 0.000E+00 2.554E-01
                                         2.974E+00 0.000E+00 0.000E+00 3.500E-01
                                         1.207E+00 0.000E+00 0.000E+00 3.417E-01
                                         4.640E-01 0.000E+00 0.000E+00 2.417E-01
                          11-    17 F  
                                         1.692E+00 0.000E+00 0.000E+00 1.000E+00
                                 18 S  
                                         2.000E-01 1.000E+00 0.000E+00 0.000E+00
                                 19 S  
                                         6.000E-01 1.000E+00 0.000E+00 0.000E+00
                          20-    22 P  
                                         2.000E-01 0.000E+00 1.000E+00 0.000E+00
                          23-    25 P  
                                         6.000E-01 0.000E+00 1.000E+00 0.000E+00
                          26-    30 D  
                                         2.000E-01 0.000E+00 0.000E+00 1.000E+00
                          31-    35 D  
                                         6.000E-01 0.000E+00 0.000E+00 1.000E+00
   2 CU  -3.711 -11.134   0.000
   3 CU  -3.711  -3.711   0.000
   4 CU  -3.711   3.711   0.000
   5 CU -11.134  -3.711   0.000
   6 CU   3.711 -11.134   0.000
   7 CU   3.711  -3.711   0.000
   8 CU   3.711   3.711   0.000
   9 O   -0.000  11.134   0.000
                                281 S  
                                         2.680E-01 3.048E-01 0.000E+00 0.000E+00
                                         5.731E-01 4.538E-01 0.000E+00 0.000E+00
                                         1.225E+00 2.959E-01 0.000E+00 0.000E+00
                                         2.620E+00 1.957E-02 0.000E+00 0.000E+00
                                         5.603E+00-1.286E-01 0.000E+00 0.000E+00
                                         1.198E+01 1.202E-02 0.000E+00 0.000E+00
                                         2.562E+01 4.070E-04 0.000E+00 0.000E+00
                                         5.478E+01-7.600E-05 0.000E+00 0.000E+00
                         282-   284 P  
                                         3.337E-01 0.000E+00 2.560E-01 0.000E+00
                                         6.666E-01 0.000E+00 2.819E-01 0.000E+00
                                         1.332E+00 0.000E+00 2.428E-01 0.000E+00
                                         2.661E+00 0.000E+00 1.611E-01 0.000E+00
                                         5.316E+00 0.000E+00 8.231E-02 0.000E+00
                                         1.062E+01 0.000E+00 3.990E-02 0.000E+00
                                         2.122E+01 0.000E+00 4.679E-03 0.000E+00
                         285-   289 D  
                                         6.693E-01 0.000E+00 0.000E+00 1.000E+00
                         290-   296 F  
                                         1.423E+00 0.000E+00 0.000E+00 1.000E+00
                                297 S  
                                         2.000E-01 1.000E+00 0.000E+00 0.000E+00
                                298 S  
                                         6.000E-01 1.000E+00 0.000E+00 0.000E+00
                         299-   301 P  
                                         2.000E-01 0.000E+00 1.000E+00 0.000E+00
                         302-   304 P  
                                         6.000E-01 0.000E+00 1.000E+00 0.000E+00
  10 O   -0.000 -11.134   0.000
  11 O    0.000  -3.711   0.000
  12 O    0.000   3.711   0.000
  13 O   -7.423  -3.711   0.000
  14 O   -7.423   3.711   0.000
  15 O    7.423  -3.711   0.000
  16 O    7.423   3.711   0.000
  17 O   11.134   0.000   0.000
  18 O   -3.711  -7.423   0.000
  19 O   -3.711   0.000   0.000
  20 O   -3.711   7.423   0.000
  21 O  -11.134   0.000   0.000
  22 O    3.711  -7.423   0.000
  23 O    3.711   0.000   0.000
  24 O    3.711   7.423   0.000
  25 SR   0.000 -14.845   3.244
                                665 S  
                                         2.177E-01-9.389E-02 0.000E+00 0.000E+00
                                         4.871E-01-2.476E-01 0.000E+00 0.000E+00
                                         1.090E+00 1.601E-01 0.000E+00 0.000E+00
                                         2.439E+00-4.360E-02 0.000E+00 0.000E+00
                                         5.457E+00 8.684E-03 0.000E+00 0.000E+00
                                         1.221E+01-1.296E-03 0.000E+00 0.000E+00
                         666-   668 P  
                                         2.236E-01 0.000E+00-4.747E-02 0.000E+00
                                         4.507E-01 0.000E+00-1.710E-01 0.000E+00
                                         9.086E-01 0.000E+00 1.048E-01 0.000E+00
                                         1.831E+00 0.000E+00-2.952E-02 0.000E+00
                                         3.692E+00 0.000E+00 6.196E-03 0.000E+00
                                         7.442E+00 0.000E+00-9.550E-04 0.000E+00
                         669-   673 D  
                                         5.283E-01 0.000E+00 0.000E+00 1.000E+00
                                674 S  
                                         2.000E-01 1.000E+00 0.000E+00 0.000E+00
                                675 S  
                                         6.000E-01 1.000E+00 0.000E+00 0.000E+00
                         676-   678 P  
                                         2.000E-01 0.000E+00 1.000E+00 0.000E+00
                         679-   681 P  
                                         6.000E-01 0.000E+00 1.000E+00 0.000E+00
  26 SR   0.000  -7.423   3.244
  27 SR   0.000   0.000   3.244
  28 SR   0.000   7.423   3.244
  29 SR  -7.423   0.000   3.244
  30 SR   7.423  -7.423   3.244
  31 SR   7.423   0.000   3.244
  32 SR  -7.423  -7.423   3.244
 INFORMATION **** SET_MPP **** PCRYSTAL CALCULATION
 INFORMATION **** READM2 **** NEW DEFAULT: FOCK/KS MATRIX MIXING SET TO 30 %
 INFORMATION **** READM2 **** NEW DEFAULT: FULL DIRECT SCF MODE
 INFORMATION **** READM2 **** NEW DEFAULT: COULOMB BIPOLAR BUFFER SET TO 32 Mb
 INFORMATION **** READM2 **** NEW DEFAULT: EXCHANGE BIPOLAR BUFFER SET TO 32 Mb

 *******************************************************************************
 NEW DEFAULT: DFT INTEGRATION GRID INCREASED TO XLGRID
 NEW DEFAULT: DIIS ACCELERATOR ACTIVE
 USE KEYWORD NODIIS TO TURN IT OFF
 *******************************************************************************

 INFORMATION **** READM2 **** FULL DIRECT SCF (MONO AND BIEL INT) SELECTED
 INFORMATION **** BIPOSIZE **** COULOMB BIPOLAR BUFFER SET TO   100000000
 INFORMATION **** EXCHSIZE **** EXCHANGE BIPOLAR BUFFER SIZE SET TO    10000000
 INFORMATION **** TOLDEE **** SCF TOL ON TOTAL ENERGY SET TO          10
 INFORMATION **** TOLINTEG **** COULOMB AND EXCHANGE SERIES TOLERANCES MODIFIED
 INFORMATION **** MAXCYCLE **** MAX NUMBER OF SCF CYCLES SET TO         200
 INFORMATION **** SMEAR **** FERMI SMEARING ACTIVE
 FERMI SMEARING - TEMPERATURE SMEARING OF FERMI SURFACE  0.1000E-12
 INFORMATION **** SAVEWF **** not fully tested
 INFORMATION **** SPINLOCK **** LOCK IN A GIVEN SPIN STATE
 ALPHA-BETA ELECTRONS LOCKED TO   1 FOR 200 SCF CYCLES
 SSSSSSSSSSSSSSSSSSSSSSSSSSSSSSSSSSSSSSSSSSSSSSSSSSSSSSSSSSSSSSSSSSSSSSSSSSSSSS
 ATOMIC SPINS SET TO (ATOM, AT. N., SPIN)
   1 229 1   2 229-1   3 229 1   4 229-1   5 229 1   6 229-1   7 229 1   8 229-1
   9 208 0  10 208 0  11 208 0  12 208 0  13 208 0  14 208 0  15 208 0  16 208 0
  17 208 0  18 208 0  19 208 0  20 208 0  21 208 0  22 208 0  23 208 0  24 208 0
  25 238 0  26 238 0  27 238 0  28 238 0  29 238 0  30 238 0  31 238 0  32 238 0
 *******************************************************************************
 N. OF ATOMS PER CELL        32  COULOMB OVERLAP TOL         (T1) 10**   -8
 NUMBER OF SHELLS           272  COULOMB PENETRATION TOL     (T2) 10**   -8
 NUMBER OF AO               800  EXCHANGE OVERLAP TOL        (T3) 10**   -8
 N. OF ELECTRONS PER CELL   265  EXCHANGE PSEUDO OVP (F(G))  (T4) 10**   -8
 CORE ELECTRONS PER CELL      0  EXCHANGE PSEUDO OVP (P(G))  (T5) 10**  -16
 N. OF SYMMETRY OPERATORS     2  POLE ORDER IN MONO ZONE                  4
 *******************************************************************************
 TYPE OF CALCULATION :  UNRESTRICTED OPEN SHELL
 KOHN-SHAM HAMILTONIAN

 (EXCHANGE)[CORRELATION] FUNCTIONAL:(PERDEW-BURKE-ERNZERHOF)[PERDEW-BURKE-ERNZERHOF]


 HYBRID EXCHANGE - PERCENTAGE OF FOCK EXCHANGE    25.0000

 SPIN POLARIZED DFT SELECTED
 CORE  PSEUDO POTENTIAL         TOL. ON PSEUDO              (TP) 10**- 6
 SPIN POLARIZATION - ALPHA-BETA =  1 FOR 200 CYCLES

 CAPPA:IS1  5;IS2  5;IS3  4; K PTS MONK NET  39; SYMMOPS:K SPACE   4;G SPACE   2

 *******************************************************************************
 MAX NUMBER OF SCF CYCLES     200  CONVERGENCE ON DELTAP        10**-20
 WEIGHT OF F(I) IN F(I+1)      90% CONVERGENCE ON ENERGY        10**-10
 SPIN POLARIZATION - ALPHA-BETA =  1 FOR 200 CYCLES
 SHRINK. FACT.(MONKH.)    5  5  4  NUMBER OF K POINTS IN THE IBZ     39
 SHRINKING FACTOR(GILAT NET)   10  NUMBER OF K POINTS(GILAT NET)    260
 *******************************************************************************
 *** K POINTS COORDINATES (OBLIQUE COORDINATES IN UNITS OF IS =  5)
   1-R(  0  0  0)   2-C(  1  0  0)   3-C(  2  0  0)   4-C(  0  1  0)
   5-C(  1  1  0)   6-C(  2  1  0)   7-C(  3  1  0)   8-C(  4  1  0)
   9-C(  0  2  0)  10-C(  1  2  0)  11-C(  2  2  0)  12-C(  3  2  0)
  13-C(  4  2  0)  14-C(  0  0  1)  15-C(  1  0  1)  16-C(  2  0  1)
  17-C(  0  1  1)  18-C(  1  1  1)  19-C(  2  1  1)  20-C(  3  1  1)
  21-C(  4  1  1)  22-C(  0  2  1)  23-C(  1  2  1)  24-C(  2  2  1)
  25-C(  3  2  1)  26-C(  4  2  1)  27-R(  0  0  2)  28-C(  1  0  2)
  29-C(  2  0  2)  30-C(  0  1  2)  31-C(  1  1  2)  32-C(  2  1  2)
  33-C(  3  1  2)  34-C(  4  1  2)  35-C(  0  2  2)  36-C(  1  2  2)
  37-C(  2  2  2)  38-C(  3  2  2)  39-C(  4  2  2)

 DIRECT LATTICE VECTORS COMPON. (A.U.)     RECIP. LATTICE VECTORS COMPON. (A.U.) 
        X            Y            Z              X            Y            Z
  -14.8451216  -14.8451216    0.0000000     -0.2116246   -0.2116246    0.0000000
   14.8451216  -14.8451216    0.0000000      0.2116246   -0.2116246    0.0000000
    0.0000000    0.0000000    6.4889416      0.0000000    0.0000000    0.9682912

 DISK SPACE FOR EIGENVECTORS (FTN 10)    48640000 REALS

 SYMMETRY ADAPTION OF THE BLOCH FUNCTIONS ENABLED
 TTTTTTTTTTTTTTTTTTTTTTTTTTTTTT gordsh1     TELAPSE        1.58 TCPU        0.02

 MATRIX SIZE: P(G) 2526000, F(G)  450872, P(G) IRR  779600, F(G) IRR  299088
 MAX G-VECTOR INDEX FOR 1- AND 2-ELECTRON INTEGRALS  69

 TTTTTTTTTTTTTTTTTTTTTTTTTTTTTT INPUT       TELAPSE        1.99 TCPU        0.44

 NEIGHBORS OF THE NON-EQUIVALENT ATOMS

 N = NUMBER OF NEIGHBORS AT DISTANCE R
    ATOM  N     R/ANG      R/AU   NEIGHBORS (ATOM LABELS AND CELL INDICES)
   1 CU   4     1.9639     3.7113    9 O    0 1 0   15 O    0 0 0   17 O    0 0 0
                                    20 O    0 1 0
   1 CU   8     3.2652     6.1704   25 SR  -1 0 0   25 SR  -1 0-1   28 SR   0 1 0
                                    28 SR   0 1-1   30 SR   0 0 0   30 SR   0 0-1
                                    31 SR   0 0 0   31 SR   0 0-1
   1 CU   2     3.4338     6.4889    1 CU   0 0-1    1 CU   0 0 1
   1 CU   4     3.9278     7.4226    2 CU  -1 0 0    4 CU   0 1 0    5 CU  -1 1 0
                                     7 CU   0 0 0
   1 CU   8     3.9558     7.4753    9 O    0 1 1    9 O    0 1-1   15 O    0 0-1
                                    15 O    0 0 1   17 O    0 0 1   17 O    0 0-1
                                    20 O    0 1 1   20 O    0 1-1
   1 CU   8     4.3915     8.2987   10 O   -1 0 0   12 O    0 1 0   14 O    0 1 0
                                    16 O    0 0 0   21 O   -1 1 0   22 O    0 0 0
                                    23 O    0 0 0   24 O    0 1 0

   2 CU   4     1.9639     3.7113   10 O    0 0 0   16 O    1 0 0   17 O    1 0 0
                                    18 O    0 0 0
   2 CU   8     3.2652     6.1704   25 SR   0 0 0   25 SR   0 0-1   26 SR   0 0 0
                                    26 SR   0 0-1   31 SR   1 0 0   31 SR   1 0-1
                                    32 SR   0 0 0   32 SR   0 0-1
   2 CU   2     3.4338     6.4889    2 CU   0 0-1    2 CU   0 0 1
   2 CU   4     3.9278     7.4226    1 CU   1 0 0    3 CU   0 0 0    6 CU   0 0 0
                                     8 CU   1 0 0
   2 CU   8     3.9558     7.4753   10 O    0 0 1   10 O    0 0-1   16 O    1 0 1
                                    16 O    1 0-1   17 O    1 0 1   17 O    1 0-1
                                    18 O    0 0 1   18 O    0 0-1
   2 CU   8     4.3915     8.2987    9 O    1 1 0   11 O    0 0 0   13 O    0 0 0
                                    15 O    1 0 0   21 O    0 1 0   22 O    0 0 0
                                    23 O    1 0 0   24 O    1 0 0

   3 CU   4     1.9639     3.7113   11 O    0 0 0   13 O    0 0 0   18 O    0 0 0
                                    19 O    0 0 0
   3 CU   8     3.2652     6.1704   26 SR   0 0 0   26 SR   0 0-1   27 SR   0 0 0
                                    27 SR   0 0-1   29 SR   0 0 0   29 SR   0 0-1
                                    32 SR   0 0 0   32 SR   0 0-1
   3 CU   2     3.4338     6.4889    3 CU   0 0-1    3 CU   0 0 1
   3 CU   4     3.9278     7.4226    2 CU   0 0 0    4 CU   0 0 0    5 CU   0 0 0
                                     7 CU   0 0 0
   3 CU   8     3.9558     7.4753   11 O    0 0 1   11 O    0 0-1   13 O    0 0-1
                                    13 O    0 0 1   18 O    0 0-1   18 O    0 0 1
                                    19 O    0 0 1   19 O    0 0-1
   3 CU   8     4.3915     8.2987   10 O    0 0 0   12 O    0 0 0   14 O    0 0 0
                                    16 O    1 0 0   21 O    0 0 0   22 O    0 0 0
                                    23 O    0 0 0   24 O    1 0 0

   4 CU   4     1.9639     3.7113   12 O    0 0 0   14 O    0 0 0   19 O    0 0 0
                                    20 O    0 0 0
   4 CU   8     3.2652     6.1704   27 SR   0 0 0   27 SR   0 0-1   28 SR   0 0 0
                                    28 SR   0 0-1   29 SR   0 0 0   29 SR   0 0-1
                                    30 SR   0-1 0   30 SR   0-1-1
   4 CU   2     3.4338     6.4889    4 CU   0 0-1    4 CU   0 0 1
   4 CU   4     3.9279     7.4226    1 CU   0-1 0    3 CU   0 0 0    6 CU   0-1 0
                                     8 CU   0 0 0
   4 CU   8     3.9558     7.4753   12 O    0 0 1   12 O    0 0-1   14 O    0 0-1
                                    14 O    0 0 1   19 O    0 0-1   19 O    0 0 1
                                    20 O    0 0 1   20 O    0 0-1
   4 CU   8     4.3915     8.2987    9 O    0 0 0   11 O    0 0 0   13 O    0 0 0
                                    15 O    0-1 0   21 O    0 0 0   22 O    0-1 0
                                    23 O    0 0 0   24 O    0 0 0

   5 CU   4     1.9639     3.7113    9 O    1 0 0   13 O    0 0 0   21 O    0 0 0
                                    24 O    1 0 0
   5 CU   8     3.2652     6.1704   25 SR   0-1 0   25 SR   0-1-1   28 SR   1 0 0
                                    28 SR   1 0-1   29 SR   0 0 0   29 SR   0 0-1
                                    32 SR   0 0 0   32 SR   0 0-1
   5 CU   2     3.4338     6.4889    5 CU   0 0-1    5 CU   0 0 1
   5 CU   4     3.9278     7.4226    1 CU   1-1 0    3 CU   0 0 0    6 CU   0-1 0
                                     8 CU   1 0 0
   5 CU   8     3.9558     7.4753    9 O    1 0 1    9 O    1 0-1   13 O    0 0 1
                                    13 O    0 0-1   21 O    0 0 1   21 O    0 0-1
                                    24 O    1 0 1   24 O    1 0-1
   5 CU   8     4.3915     8.2987   10 O    0-1 0   12 O    1 0 0   14 O    0 0 0
                                    16 O    1 0 0   17 O    1-1 0   18 O    0 0 0
                                    19 O    0 0 0   20 O    1 0 0

   6 CU   4     1.9639     3.7113   10 O    0 0 0   14 O    0 1 0   21 O    0 1 0
                                    22 O    0 0 0
   6 CU   8     3.2652     6.1704   25 SR   0 0 0   25 SR   0 0-1   26 SR   0 0 0
                                    26 SR   0 0-1   29 SR   0 1 0   29 SR   0 1-1
                                    30 SR   0 0 0   30 SR   0 0-1
   6 CU   2     3.4338     6.4889    6 CU   0 0-1    6 CU   0 0 1
   6 CU   4     3.9279     7.4226    2 CU   0 0 0    4 CU   0 1 0    5 CU   0 1 0
                                     7 CU   0 0 0
   6 CU   8     3.9558     7.4753   10 O    0 0-1   10 O    0 0 1   14 O    0 1 1
                                    14 O    0 1-1   21 O    0 1 1   21 O    0 1-1
                                    22 O    0 0 1   22 O    0 0-1
   6 CU   8     4.3915     8.2987    9 O    1 1 0   11 O    0 0 0   13 O    0 1 0
                                    15 O    0 0 0   17 O    1 0 0   18 O    0 0 0
                                    19 O    0 1 0   20 O    0 1 0

   7 CU   4     1.9639     3.7113   11 O    0 0 0   15 O    0 0 0   22 O    0 0 0
                                    23 O    0 0 0
   7 CU   8     3.2652     6.1704   26 SR   0 0 0   26 SR   0 0-1   27 SR   0 0 0
                                    27 SR   0 0-1   30 SR   0 0 0   30 SR   0 0-1
                                    31 SR   0 0 0   31 SR   0 0-1
   7 CU   2     3.4338     6.4889    7 CU   0 0-1    7 CU   0 0 1
   7 CU   4     3.9279     7.4226    1 CU   0 0 0    3 CU   0 0 0    6 CU   0 0 0
                                     8 CU   0 0 0
   7 CU   8     3.9558     7.4753   11 O    0 0-1   11 O    0 0 1   15 O    0 0 1
                                    15 O    0 0-1   22 O    0 0-1   22 O    0 0 1
                                    23 O    0 0 1   23 O    0 0-1
   7 CU   8     4.3915     8.2987   10 O    0 0 0   12 O    0 0 0   14 O    0 1 0
                                    16 O    0 0 0   17 O    0 0 0   18 O    0 0 0
                                    19 O    0 0 0   20 O    0 1 0

   8 CU   4     1.9639     3.7113   12 O    0 0 0   16 O    0 0 0   23 O    0 0 0
                                    24 O    0 0 0
   8 CU   8     3.2652     6.1704   27 SR   0 0 0   27 SR   0 0-1   28 SR   0 0 0
                                    28 SR   0 0-1   31 SR   0 0 0   31 SR   0 0-1
                                    32 SR  -1 0 0   32 SR  -1 0-1
   8 CU   2     3.4338     6.4889    8 CU   0 0-1    8 CU   0 0 1
   8 CU   4     3.9278     7.4226    2 CU  -1 0 0    4 CU   0 0 0    5 CU  -1 0 0
                                     7 CU   0 0 0
   8 CU   8     3.9558     7.4753   12 O    0 0-1   12 O    0 0 1   16 O    0 0 1
                                    16 O    0 0-1   23 O    0 0-1   23 O    0 0 1
                                    24 O    0 0 1   24 O    0 0-1
   8 CU   8     4.3915     8.2987    9 O    0 0 0   11 O    0 0 0   13 O   -1 0 0
                                    15 O    0 0 0   17 O    0 0 0   18 O   -1 0 0
                                    19 O    0 0 0   20 O    0 0 0

   9 O    2     1.9639     3.7113    1 CU   0-1 0    5 CU  -1 0 0
   9 O    4     2.6086     4.9295   25 SR  -1-1 0   25 SR  -1-1-1   28 SR   0 0 0
                                    28 SR   0 0-1
   9 O    4     2.7774     5.2485   17 O    0-1 0   20 O    0 0 0   21 O   -1 0 0
                                    24 O    0 0 0
   9 O    2     3.4338     6.4889    9 O    0 0-1    9 O    0 0 1
   9 O    4     3.9279     7.4226   10 O   -1-1 0   12 O    0 0 0   13 O   -1 0 0
                                    15 O    0-1 0
   9 O    4     3.9558     7.4753    1 CU   0-1-1    1 CU   0-1 1    5 CU  -1 0-1
                                     5 CU  -1 0 1

  10 O    2     1.9639     3.7113    2 CU   0 0 0    6 CU   0 0 0
  10 O    4     2.6086     4.9295   25 SR   0 0 0   25 SR   0 0-1   26 SR   0 0 0
                                    26 SR   0 0-1
  10 O    4     2.7774     5.2485   17 O    1 0 0   18 O    0 0 0   21 O    0 1 0
                                    22 O    0 0 0
  10 O    2     3.4338     6.4889   10 O    0 0-1   10 O    0 0 1
  10 O    4     3.9279     7.4226    9 O    1 1 0   11 O    0 0 0   14 O    0 1 0
                                    16 O    1 0 0
  10 O    4     3.9558     7.4753    2 CU   0 0-1    2 CU   0 0 1    6 CU   0 0 1
                                     6 CU   0 0-1

  11 O    2     1.9639     3.7113    3 CU   0 0 0    7 CU   0 0 0
  11 O    4     2.6086     4.9295   26 SR   0 0 0   26 SR   0 0-1   27 SR   0 0 0
                                    27 SR   0 0-1
  11 O    4     2.7774     5.2485   18 O    0 0 0   19 O    0 0 0   22 O    0 0 0
                                    23 O    0 0 0
  11 O    2     3.4338     6.4889   11 O    0 0-1   11 O    0 0 1
  11 O    4     3.9278     7.4226   10 O    0 0 0   12 O    0 0 0   13 O    0 0 0
                                    15 O    0 0 0
  11 O    4     3.9558     7.4753    3 CU   0 0-1    3 CU   0 0 1    7 CU   0 0 1
                                     7 CU   0 0-1

  12 O    2     1.9639     3.7113    4 CU   0 0 0    8 CU   0 0 0
  12 O    4     2.6086     4.9295   27 SR   0 0 0   27 SR   0 0-1   28 SR   0 0 0
                                    28 SR   0 0-1
  12 O    4     2.7774     5.2485   19 O    0 0 0   20 O    0 0 0   23 O    0 0 0
                                    24 O    0 0 0
  12 O    2     3.4338     6.4889   12 O    0 0-1   12 O    0 0 1
  12 O    4     3.9279     7.4226    9 O    0 0 0   11 O    0 0 0   14 O    0 0 0
                                    16 O    0 0 0
  12 O    4     3.9558     7.4753    4 CU   0 0-1    4 CU   0 0 1    8 CU   0 0 1
                                     8 CU   0 0-1

  13 O    2     1.9639     3.7113    3 CU   0 0 0    5 CU   0 0 0
  13 O    4     2.6086     4.9295   29 SR   0 0 0   29 SR   0 0-1   32 SR   0 0 0
                                    32 SR   0 0-1
  13 O    4     2.7774     5.2485   18 O    0 0 0   19 O    0 0 0   21 O    0 0 0
                                    24 O    1 0 0
  13 O    2     3.4338     6.4889   13 O    0 0-1   13 O    0 0 1
  13 O    4     3.9278     7.4226    9 O    1 0 0   11 O    0 0 0   14 O    0 0 0
                                    16 O    1 0 0
  13 O    4     3.9558     7.4753    3 CU   0 0 1    3 CU   0 0-1    5 CU   0 0-1
                                     5 CU   0 0 1

  14 O    2     1.9639     3.7113    4 CU   0 0 0    6 CU   0-1 0
  14 O    4     2.6086     4.9295   29 SR   0 0 0   29 SR   0 0-1   30 SR   0-1 0
                                    30 SR   0-1-1
  14 O    4     2.7774     5.2485   19 O    0 0 0   20 O    0 0 0   21 O    0 0 0
                                    22 O    0-1 0
  14 O    2     3.4338     6.4889   14 O    0 0-1   14 O    0 0 1
  14 O    4     3.9278     7.4226   10 O    0-1 0   12 O    0 0 0   13 O    0 0 0
                                    15 O    0-1 0
  14 O    4     3.9558     7.4753    4 CU   0 0 1    4 CU   0 0-1    6 CU   0-1-1
                                     6 CU   0-1 1

  15 O    2     1.9639     3.7113    1 CU   0 0 0    7 CU   0 0 0
  15 O    4     2.6086     4.9295   30 SR   0 0 0   30 SR   0 0-1   31 SR   0 0 0
                                    31 SR   0 0-1
  15 O    4     2.7774     5.2485   17 O    0 0 0   20 O    0 1 0   22 O    0 0 0
                                    23 O    0 0 0
  15 O    2     3.4338     6.4889   15 O    0 0-1   15 O    0 0 1
  15 O    4     3.9278     7.4226    9 O    0 1 0   11 O    0 0 0   14 O    0 1 0
                                    16 O    0 0 0
  15 O    4     3.9558     7.4753    1 CU   0 0 1    1 CU   0 0-1    7 CU   0 0-1
                                     7 CU   0 0 1

  16 O    2     1.9639     3.7113    2 CU  -1 0 0    8 CU   0 0 0
  16 O    4     2.6086     4.9295   31 SR   0 0 0   31 SR   0 0-1   32 SR  -1 0 0
                                    32 SR  -1 0-1
  16 O    4     2.7774     5.2485   17 O    0 0 0   18 O   -1 0 0   23 O    0 0 0
                                    24 O    0 0 0
  16 O    2     3.4338     6.4889   16 O    0 0-1   16 O    0 0 1
  16 O    4     3.9278     7.4226   10 O   -1 0 0   12 O    0 0 0   13 O   -1 0 0
                                    15 O    0 0 0
  16 O    4     3.9558     7.4753    2 CU  -1 0-1    2 CU  -1 0 1    8 CU   0 0-1
                                     8 CU   0 0 1

  17 O    2     1.9639     3.7113    1 CU   0 0 0    2 CU  -1 0 0
  17 O    4     2.6086     4.9295   25 SR  -1 0 0   25 SR  -1 0-1   31 SR   0 0 0
                                    31 SR   0 0-1
  17 O    4     2.7774     5.2485    9 O    0 1 0   10 O   -1 0 0   15 O    0 0 0
                                    16 O    0 0 0
  17 O    2     3.4338     6.4889   17 O    0 0-1   17 O    0 0 1
  17 O    4     3.9278     7.4226   18 O   -1 0 0   20 O    0 1 0   21 O   -1 1 0
                                    23 O    0 0 0
  17 O    4     3.9558     7.4753    1 CU   0 0-1    1 CU   0 0 1    2 CU  -1 0-1
                                     2 CU  -1 0 1

  18 O    2     1.9639     3.7113    2 CU   0 0 0    3 CU   0 0 0
  18 O    4     2.6086     4.9295   26 SR   0 0 0   26 SR   0 0-1   32 SR   0 0 0
                                    32 SR   0 0-1
  18 O    4     2.7774     5.2485   10 O    0 0 0   11 O    0 0 0   13 O    0 0 0
                                    16 O    1 0 0
  18 O    2     3.4338     6.4889   18 O    0 0-1   18 O    0 0 1
  18 O    4     3.9278     7.4226   17 O    1 0 0   19 O    0 0 0   22 O    0 0 0
                                    24 O    1 0 0
  18 O    4     3.9558     7.4753    2 CU   0 0-1    2 CU   0 0 1    3 CU   0 0 1
                                     3 CU   0 0-1

  19 O    2     1.9639     3.7113    3 CU   0 0 0    4 CU   0 0 0
  19 O    4     2.6086     4.9295   27 SR   0 0 0   27 SR   0 0-1   29 SR   0 0 0
                                    29 SR   0 0-1
  19 O    4     2.7774     5.2485   11 O    0 0 0   12 O    0 0 0   13 O    0 0 0
                                    14 O    0 0 0
  19 O    2     3.4338     6.4889   19 O    0 0-1   19 O    0 0 1
  19 O    4     3.9278     7.4226   18 O    0 0 0   20 O    0 0 0   21 O    0 0 0
                                    23 O    0 0 0
  19 O    4     3.9558     7.4753    3 CU   0 0-1    3 CU   0 0 1    4 CU   0 0 1
                                     4 CU   0 0-1

  20 O    2     1.9639     3.7113    1 CU   0-1 0    4 CU   0 0 0
  20 O    4     2.6086     4.9295   28 SR   0 0 0   28 SR   0 0-1   30 SR   0-1 0
                                    30 SR   0-1-1
  20 O    4     2.7774     5.2485    9 O    0 0 0   12 O    0 0 0   14 O    0 0 0
                                    15 O    0-1 0
  20 O    2     3.4338     6.4889   20 O    0 0-1   20 O    0 0 1
  20 O    4     3.9279     7.4226   17 O    0-1 0   19 O    0 0 0   22 O    0-1 0
                                    24 O    0 0 0
  20 O    4     3.9558     7.4753    1 CU   0-1-1    1 CU   0-1 1    4 CU   0 0-1
                                     4 CU   0 0 1

  21 O    2     1.9639     3.7113    5 CU   0 0 0    6 CU   0-1 0
  21 O    4     2.6086     4.9295   25 SR   0-1 0   25 SR   0-1-1   29 SR   0 0 0
                                    29 SR   0 0-1
  21 O    4     2.7774     5.2485    9 O    1 0 0   10 O    0-1 0   13 O    0 0 0
                                    14 O    0 0 0
  21 O    2     3.4338     6.4889   21 O    0 0-1   21 O    0 0 1
  21 O    4     3.9278     7.4226   17 O    1-1 0   19 O    0 0 0   22 O    0-1 0
                                    24 O    1 0 0
  21 O    4     3.9558     7.4753    5 CU   0 0-1    5 CU   0 0 1    6 CU   0-1-1
                                     6 CU   0-1 1

  22 O    2     1.9639     3.7113    6 CU   0 0 0    7 CU   0 0 0
  22 O    4     2.6086     4.9295   26 SR   0 0 0   26 SR   0 0-1   30 SR   0 0 0
                                    30 SR   0 0-1
  22 O    4     2.7774     5.2485   10 O    0 0 0   11 O    0 0 0   14 O    0 1 0
                                    15 O    0 0 0
  22 O    2     3.4338     6.4889   22 O    0 0-1   22 O    0 0 1
  22 O    4     3.9278     7.4226   18 O    0 0 0   20 O    0 1 0   21 O    0 1 0
                                    23 O    0 0 0
  22 O    4     3.9558     7.4753    6 CU   0 0-1    6 CU   0 0 1    7 CU   0 0 1
                                     7 CU   0 0-1

  23 O    2     1.9639     3.7113    7 CU   0 0 0    8 CU   0 0 0
  23 O    4     2.6086     4.9295   27 SR   0 0 0   27 SR   0 0-1   31 SR   0 0 0
                                    31 SR   0 0-1
  23 O    4     2.7774     5.2485   11 O    0 0 0   12 O    0 0 0   15 O    0 0 0
                                    16 O    0 0 0
  23 O    2     3.4338     6.4889   23 O    0 0-1   23 O    0 0 1
  23 O    4     3.9279     7.4226   17 O    0 0 0   19 O    0 0 0   22 O    0 0 0
                                    24 O    0 0 0
  23 O    4     3.9558     7.4753    7 CU   0 0-1    7 CU   0 0 1    8 CU   0 0 1
                                     8 CU   0 0-1

  24 O    2     1.9639     3.7113    5 CU  -1 0 0    8 CU   0 0 0
  24 O    4     2.6086     4.9295   28 SR   0 0 0   28 SR   0 0-1   32 SR  -1 0 0
                                    32 SR  -1 0-1
  24 O    4     2.7774     5.2485    9 O    0 0 0   12 O    0 0 0   13 O   -1 0 0
                                    16 O    0 0 0
  24 O    2     3.4338     6.4889   24 O    0 0-1   24 O    0 0 1
  24 O    4     3.9279     7.4226   18 O   -1 0 0   20 O    0 0 0   21 O   -1 0 0
                                    23 O    0 0 0
  24 O    4     3.9558     7.4753    5 CU  -1 0-1    5 CU  -1 0 1    8 CU   0 0-1
                                     8 CU   0 0 1

  25 SR   8     2.6086     4.9295    9 O    1 1 0    9 O    1 1 1   10 O    0 0 0
                                    10 O    0 0 1   17 O    1 0 0   17 O    1 0 1
                                    21 O    0 1 0   21 O    0 1 1
  25 SR   8     3.2652     6.1704    1 CU   1 0 0    1 CU   1 0 1    2 CU   0 0 0
                                     2 CU   0 0 1    5 CU   0 1 0    5 CU   0 1 1
                                     6 CU   0 0 0    6 CU   0 0 1
  25 SR   2     3.4338     6.4889   25 SR   0 0-1   25 SR   0 0 1
  25 SR   4     3.9278     7.4226   26 SR   0 0 0   28 SR   1 1 0   29 SR   0 1 0
                                    31 SR   1 0 0
  25 SR  16     4.7152     8.9104   13 O    0 1 0   13 O    0 1 1   14 O    0 1 0
                                    14 O    0 1 1   15 O    1 0 0   15 O    1 0 1
                                    16 O    1 0 0   16 O    1 0 1   18 O    0 0 0
                                    18 O    0 0 1   20 O    1 1 0   20 O    1 1 1
                                    22 O    0 0 0   22 O    0 0 1   24 O    1 1 0
                                    24 O    1 1 1
  25 SR   8     5.2172     9.8590   26 SR   0 0 1   26 SR   0 0-1   28 SR   1 1 1
                                    28 SR   1 1-1   29 SR   0 1 1   29 SR   0 1-1
                                    31 SR   1 0 1   31 SR   1 0-1

  26 SR   8     2.6086     4.9295   10 O    0 0 0   10 O    0 0 1   11 O    0 0 0
                                    11 O    0 0 1   18 O    0 0 0   18 O    0 0 1
                                    22 O    0 0 0   22 O    0 0 1
  26 SR   8     3.2652     6.1704    2 CU   0 0 0    2 CU   0 0 1    3 CU   0 0 0
                                     3 CU   0 0 1    6 CU   0 0 0    6 CU   0 0 1
                                     7 CU   0 0 0    7 CU   0 0 1
  26 SR   2     3.4338     6.4889   26 SR   0 0-1   26 SR   0 0 1
  26 SR   4     3.9278     7.4226   25 SR   0 0 0   27 SR   0 0 0   30 SR   0 0 0
                                    32 SR   0 0 0
  26 SR  16     4.7152     8.9104   13 O    0 0 0   13 O    0 0 1   14 O    0 1 0
                                    14 O    0 1 1   15 O    0 0 0   15 O    0 0 1
                                    16 O    1 0 0   16 O    1 0 1   17 O    1 0 0
                                    17 O    1 0 1   19 O    0 0 0   19 O    0 0 1
                                    21 O    0 1 0   21 O    0 1 1   23 O    0 0 0
                                    23 O    0 0 1
  26 SR   8     5.2172     9.8590   25 SR   0 0-1   25 SR   0 0 1   27 SR   0 0 1
                                    27 SR   0 0-1   30 SR   0 0-1   30 SR   0 0 1
                                    32 SR   0 0 1   32 SR   0 0-1

  27 SR   8     2.6086     4.9295   11 O    0 0 0   11 O    0 0 1   12 O    0 0 0
                                    12 O    0 0 1   19 O    0 0 0   19 O    0 0 1
                                    23 O    0 0 0   23 O    0 0 1
  27 SR   8     3.2652     6.1704    3 CU   0 0 0    3 CU   0 0 1    4 CU   0 0 0
                                     4 CU   0 0 1    7 CU   0 0 0    7 CU   0 0 1
                                     8 CU   0 0 0    8 CU   0 0 1
  27 SR   2     3.4338     6.4889   27 SR   0 0-1   27 SR   0 0 1
  27 SR   4     3.9278     7.4226   26 SR   0 0 0   28 SR   0 0 0   29 SR   0 0 0
                                    31 SR   0 0 0
  27 SR  16     4.7152     8.9104   13 O    0 0 0   13 O    0 0 1   14 O    0 0 0
                                    14 O    0 0 1   15 O    0 0 0   15 O    0 0 1
                                    16 O    0 0 0   16 O    0 0 1   18 O    0 0 0
                                    18 O    0 0 1   20 O    0 0 0   20 O    0 0 1
                                    22 O    0 0 0   22 O    0 0 1   24 O    0 0 0
                                    24 O    0 0 1
  27 SR   8     5.2172     9.8590   26 SR   0 0-1   26 SR   0 0 1   28 SR   0 0 1
                                    28 SR   0 0-1   29 SR   0 0 1   29 SR   0 0-1
                                    31 SR   0 0-1   31 SR   0 0 1

  28 SR   8     2.6086     4.9295    9 O    0 0 0    9 O    0 0 1   12 O    0 0 0
                                    12 O    0 0 1   20 O    0 0 0   20 O    0 0 1
                                    24 O    0 0 0   24 O    0 0 1
  28 SR   8     3.2652     6.1704    1 CU   0-1 0    1 CU   0-1 1    4 CU   0 0 0
                                     4 CU   0 0 1    5 CU  -1 0 0    5 CU  -1 0 1
                                     8 CU   0 0 0    8 CU   0 0 1
  28 SR   2     3.4338     6.4889   28 SR   0 0-1   28 SR   0 0 1
  28 SR   4     3.9279     7.4226   25 SR  -1-1 0   27 SR   0 0 0   30 SR   0-1 0
                                    32 SR  -1 0 0
  28 SR  16     4.7152     8.9104   13 O   -1 0 0   13 O   -1 0 1   14 O    0 0 0
                                    14 O    0 0 1   15 O    0-1 0   15 O    0-1 1
                                    16 O    0 0 0   16 O    0 0 1   17 O    0-1 0
                                    17 O    0-1 1   19 O    0 0 0   19 O    0 0 1
                                    21 O   -1 0 0   21 O   -1 0 1   23 O    0 0 0
                                    23 O    0 0 1
  28 SR   8     5.2172     9.8590   25 SR  -1-1-1   25 SR  -1-1 1   27 SR   0 0-1
                                    27 SR   0 0 1   30 SR   0-1-1   30 SR   0-1 1
                                    32 SR  -1 0-1   32 SR  -1 0 1

  29 SR   8     2.6086     4.9295   13 O    0 0 0   13 O    0 0 1   14 O    0 0 0
                                    14 O    0 0 1   19 O    0 0 0   19 O    0 0 1
                                    21 O    0 0 0   21 O    0 0 1
  29 SR   8     3.2652     6.1704    3 CU   0 0 0    3 CU   0 0 1    4 CU   0 0 0
                                     4 CU   0 0 1    5 CU   0 0 0    5 CU   0 0 1
                                     6 CU   0-1 0    6 CU   0-1 1
  29 SR   2     3.4338     6.4889   29 SR   0 0-1   29 SR   0 0 1
  29 SR   4     3.9278     7.4226   25 SR   0-1 0   27 SR   0 0 0   30 SR   0-1 0
                                    32 SR   0 0 0
  29 SR  16     4.7152     8.9104    9 O    1 0 0    9 O    1 0 1   10 O    0-1 0
                                    10 O    0-1 1   11 O    0 0 0   11 O    0 0 1
                                    12 O    0 0 0   12 O    0 0 1   18 O    0 0 0
                                    18 O    0 0 1   20 O    0 0 0   20 O    0 0 1
                                    22 O    0-1 0   22 O    0-1 1   24 O    1 0 0
                                    24 O    1 0 1
  29 SR   8     5.2172     9.8590   25 SR   0-1-1   25 SR   0-1 1   27 SR   0 0-1
                                    27 SR   0 0 1   30 SR   0-1-1   30 SR   0-1 1
                                    32 SR   0 0-1   32 SR   0 0 1

  30 SR   8     2.6086     4.9295   14 O    0 1 0   14 O    0 1 1   15 O    0 0 0
                                    15 O    0 0 1   20 O    0 1 0   20 O    0 1 1
                                    22 O    0 0 0   22 O    0 0 1
  30 SR   8     3.2652     6.1704    1 CU   0 0 0    1 CU   0 0 1    4 CU   0 1 0
                                     4 CU   0 1 1    6 CU   0 0 0    6 CU   0 0 1
                                     7 CU   0 0 0    7 CU   0 0 1
  30 SR   2     3.4338     6.4889   30 SR   0 0-1   30 SR   0 0 1
  30 SR   4     3.9278     7.4226   26 SR   0 0 0   28 SR   0 1 0   29 SR   0 1 0
                                    31 SR   0 0 0
  30 SR  16     4.7152     8.9104    9 O    0 1 0    9 O    0 1 1   10 O    0 0 0
                                    10 O    0 0 1   11 O    0 0 0   11 O    0 0 1
                                    12 O    0 1 0   12 O    0 1 1   17 O    0 0 0
                                    17 O    0 0 1   19 O    0 1 0   19 O    0 1 1
                                    21 O    0 1 0   21 O    0 1 1   23 O    0 0 0
                                    23 O    0 0 1
  30 SR   8     5.2172     9.8590   26 SR   0 0 1   26 SR   0 0-1   28 SR   0 1 1
                                    28 SR   0 1-1   29 SR   0 1 1   29 SR   0 1-1
                                    31 SR   0 0 1   31 SR   0 0-1

  31 SR   8     2.6086     4.9295   15 O    0 0 0   15 O    0 0 1   16 O    0 0 0
                                    16 O    0 0 1   17 O    0 0 0   17 O    0 0 1
                                    23 O    0 0 0   23 O    0 0 1
  31 SR   8     3.2652     6.1704    1 CU   0 0 0    1 CU   0 0 1    2 CU  -1 0 0
                                     2 CU  -1 0 1    7 CU   0 0 0    7 CU   0 0 1
                                     8 CU   0 0 0    8 CU   0 0 1
  31 SR   2     3.4338     6.4889   31 SR   0 0-1   31 SR   0 0 1
  31 SR   4     3.9279     7.4226   25 SR  -1 0 0   27 SR   0 0 0   30 SR   0 0 0
                                    32 SR  -1 0 0
  31 SR  16     4.7152     8.9104    9 O    0 1 0    9 O    0 1 1   10 O   -1 0 0
                                    10 O   -1 0 1   11 O    0 0 0   11 O    0 0 1
                                    12 O    0 0 0   12 O    0 0 1   18 O   -1 0 0
                                    18 O   -1 0 1   20 O    0 1 0   20 O    0 1 1
                                    22 O    0 0 0   22 O    0 0 1   24 O    0 0 0
                                    24 O    0 0 1
  31 SR   8     5.2172     9.8590   25 SR  -1 0-1   25 SR  -1 0 1   27 SR   0 0 1
                                    27 SR   0 0-1   30 SR   0 0-1   30 SR   0 0 1
                                    32 SR  -1 0-1   32 SR  -1 0 1

  32 SR   8     2.6086     4.9295   13 O    0 0 0   13 O    0 0 1   16 O    1 0 0
                                    16 O    1 0 1   18 O    0 0 0   18 O    0 0 1
                                    24 O    1 0 0   24 O    1 0 1
  32 SR   8     3.2652     6.1704    2 CU   0 0 0    2 CU   0 0 1    3 CU   0 0 0
                                     3 CU   0 0 1    5 CU   0 0 0    5 CU   0 0 1
                                     8 CU   1 0 0    8 CU   1 0 1
  32 SR   2     3.4338     6.4889   32 SR   0 0-1   32 SR   0 0 1
  32 SR   4     3.9278     7.4226   26 SR   0 0 0   28 SR   1 0 0   29 SR   0 0 0
                                    31 SR   1 0 0
  32 SR  16     4.7152     8.9104    9 O    1 0 0    9 O    1 0 1   10 O    0 0 0
                                    10 O    0 0 1   11 O    0 0 0   11 O    0 0 1
                                    12 O    1 0 0   12 O    1 0 1   17 O    1 0 0
                                    17 O    1 0 1   19 O    0 0 0   19 O    0 0 1
                                    21 O    0 0 0   21 O    0 0 1   23 O    1 0 0
                                    23 O    1 0 1
  32 SR   8     5.2172     9.8590   26 SR   0 0-1   26 SR   0 0 1   28 SR   1 0 1
                                    28 SR   1 0-1   29 SR   0 0 1   29 SR   0 0-1
                                    31 SR   1 0 1   31 SR   1 0-1


 SYMMETRY ALLOWED INTERNAL DEGREE(S) OF FREEDOM:  62
 TTTTTTTTTTTTTTTTTTTTTTTTTTTTTT SYMM        TELAPSE        2.90 TCPU        1.34
 TTTTTTTTTTTTTTTTTTTTTTTTTTTTTT INT_SCREEN  TELAPSE        3.18 TCPU        1.62
 INFORMATION **** EXCBUF **** EXCH. BIPO BUFFER: WORDS USED =     8273970

 DFT PARAMETERS

     ATOM       ELECTRONS   NET CHARGE   R(ANGSTROM)
   1 229  CU     17.1250      1.8750     0.73500000
   9 208  O       8.0000     -2.0000     1.40000000
  25 238  SR      0.0000      2.0000     1.18000000
[golub219:115087] 19 more processes have sent help message help-mpi-btl-base.txt / btl:no-nics
[golub219:115087] Set MCA parameter "orte_base_help_aggregate" to 0 to see all help / error messages

 SIZE OF GRID=     361904
 TTTTTTTTTTTTTTTTTTTTTTTTTTTTTT MAKE_GRID2  TELAPSE        7.21 TCPU        5.65
 BECKE WEIGHT FUNCTION
 RADSAFE =     2.00
 TOLERANCES - DENSITY:10**- 6; POTENTIAL:10**- 9; GRID WGT:10**-14

 RADIAL INTEGRATION  - INTERVALS (POINTS,UPPER LIMIT):            1( 75,  4.0*R)

 ANGULAR INTEGRATION - INTERVALS (ACCURACY LEVEL [N. POINTS] UPPER LIMIT):
  1(  4[  86]   0.2)  2(  8[ 194]   0.5)  3( 12[ 350]   0.9)  4( 16[ 974]   3.5)
  5( 12[ 350]9999.0)
 TTTTTTTTTTTTTTTTTTTTTTTTTTTTTT INT_CALC    TELAPSE        7.26 TCPU        5.70
 EEEEEEEEEE INT_CALC TERMINATION  DATE 27 06 2018 TIME 11:17:13.8

 *******************************************************************************
 Generated by CrystalWriter                                                      
 CRYSTAL - SCF - TYPE OF CALCULATION :  UNRESTRICTED OPEN SHELL
 *******************************************************************************

 CAPPA:IS1  5;IS2  5;IS3  4; K PTS MONK NET  39; SYMMOPS:K SPACE   4;G SPACE   2

 TTTTTTTTTTTTTTTTTTTTTTTTTTTTTT SDIK        TELAPSE       11.27 TCPU        6.56

 AAAAAAAAAAAAAAAAAAAAAAAAAAAAAAAAAAAAAAAAAAAAAAAAAAAAAAAAAAAAAAAAAAAAAAAAAAAAAAA
         ATOMIC WAVEFUNCTION(S)


 NUCLEAR CHARGE 19.0  SYMMETRY SPECIES            S    P    D
 N. ELECTRONS   17.1  NUMBER OF PRIMITIVE GTOS   14    9    7
                      NUMBER OF CONTRACTED GTOS   4    3    3
                      NUMBER OF CLOSED SHELLS     1    1    0
                      OPEN SHELL OCCUPATION       0    0    9

[...]
 DIIS TEST: 0.21256E-05 AT SCF   CYCLE  14 - DIIS ACTIVE - HISTORY:    14 CYCLES
 TTTTTTTTTTTTTTTTTTTTTTTTTTTTTT FDIK        TELAPSE     9406.69 TCPU     9112.67
 SPIN LOCKING: NO ENERGY GAP COMPUTED
 TTTTTTTTTTTTTTTTTTTTTTTTTTTTTT PDIG        TELAPSE     9409.56 TCPU     9114.68
 CHARGE NORMALIZATION FACTOR   1.00000000
 TOTAL ATOMIC CHARGES:
  18.0381100  18.0961988  18.0381180  18.0962056  18.0381090  18.0960829
  18.0381159  18.0960881   7.4430048   7.4427074   7.4430013   7.4427008
   7.4430009   7.4426903   7.4430008   7.4426910   7.4397431   7.4397408
   7.4397392   7.4397413   7.4397647   7.4397605   7.4397570   7.4397609
   0.1752709   0.1752707   0.1752703   0.1752707   0.1752711   0.1752710
   0.1752710   0.1752710
 SUMMED SPIN DENSITY           1.00000000
 TOTAL ATOMIC SPINS  :
   0.6241655  -0.4297991   0.6241663  -0.4297992   0.6240766  -0.4295795
   0.6240768  -0.4295798   0.1178124  -0.1194874   0.1178113  -0.1194866
   0.1178125  -0.1194909   0.1178127  -0.1194908   0.0285743   0.0285735
   0.0285740   0.0285746   0.0286268   0.0286263   0.0286269   0.0286272
   0.0000220   0.0000220   0.0000220   0.0000220   0.0000220   0.0000220
   0.0000220   0.0000220
 TTTTTTTTTTTTTTTTTTTTTTTTTTTTTT MOQGAD      TELAPSE     9409.61 TCPU     9114.73
 TTTTTTTTTTTTTTTTTTTTTTTTTTTTTT SHELLXN     TELAPSE     9950.93 TCPU     9653.28
 TTTTTTTTTTTTTTTTTTTTTTTTTTTTTT MONMO3      TELAPSE     9995.47 TCPU     9697.85
 NUMERICALLY INTEGRATED DENSITY    132.9998385986    131.9998425714
 TTTTTTTTTTTTTTTTTTTTTTTTTTTTTT NUMDFT      TELAPSE    10004.44 TCPU     9706.84
 CYC  15 ETOT(AU) -1.842154104588E+03 DETOT -2.15E-07 tst  2.05E-09 PX  1.25E-04
 CYCLE 15 WAVE FUNCTION SAVED IN FORTRAN UNIT 79
 TTTTTTTTTTTTTTTTTTTTTTTTTTTTTT DIIS        TELAPSE    10016.53 TCPU     9717.14
 DIIS TEST: 0.43758E-06 AT SCF   CYCLE  15 - DIIS ACTIVE - HISTORY:    15 CYCLES
 TTTTTTTTTTTTTTTTTTTTTTTTTTTTTT FDIK        TELAPSE    10039.24 TCPU     9725.51
 SPIN LOCKING: NO ENERGY GAP COMPUTED
 TTTTTTTTTTTTTTTTTTTTTTTTTTTTTT PDIG        TELAPSE    10044.75 TCPU     9731.00
 CHARGE NORMALIZATION FACTOR   1.00000000
 TOTAL ATOMIC CHARGES:
  18.0380765  18.0962078  18.0380846  18.0962147  18.0380803  18.0961431
  18.0380873  18.0961481   7.4430054   7.4426944   7.4430019   7.4426877
   7.4430068   7.4427073   7.4430066   7.4427080   7.4397479   7.4397451
   7.4397439   7.4397457   7.4397553   7.4397510   7.4397475   7.4397513
   0.1752695   0.1752693   0.1752689   0.1752692   0.1752688   0.1752687
   0.1752687   0.1752687
 SUMMED SPIN DENSITY           1.00000000
 TOTAL ATOMIC SPINS  :
   0.6241777  -0.4297464   0.6241786  -0.4297465   0.6241293  -0.4296171
   0.6241297  -0.4296175   0.1178014  -0.1194891   0.1178002  -0.1194883
   0.1178003  -0.1194858   0.1178006  -0.1194857   0.0285694   0.0285687
   0.0285691   0.0285698   0.0285988   0.0285982   0.0285988   0.0285992
   0.0000233   0.0000233   0.0000233   0.0000233   0.0000234   0.0000234
   0.0000234   0.0000234
 TTTTTTTTTTTTTTTTTTTTTTTTTTTTTT MOQGAD      TELAPSE    10044.79 TCPU     9731.05
 TTTTTTTTTTTTTTTTTTTTTTTTTTTTTT SHELLXN     TELAPSE    10589.44 TCPU    10270.01
 TTTTTTTTTTTTTTTTTTTTTTTTTTTTTT MONMO3      TELAPSE    10630.19 TCPU    10310.78
 NUMERICALLY INTEGRATED DENSITY    132.9998385957    131.9998425804
 TTTTTTTTTTTTTTTTTTTTTTTTTTTTTT NUMDFT      TELAPSE    10639.14 TCPU    10319.73
 CYC  16 ETOT(AU) -1.842154104628E+03 DETOT -4.00E-08 tst  1.59E-09 PX  7.91E-05
 CYCLE 16 WAVE FUNCTION SAVED IN FORTRAN UNIT 79
 TTTTTTTTTTTTTTTTTTTTTTTTTTTTTT DIIS        TELAPSE    10657.32 TCPU    10334.06
 DIIS TEST: 0.11484E-06 AT SCF   CYCLE  16 - DIIS ACTIVE - HISTORY:    16 CYCLES
 TTTTTTTTTTTTTTTTTTTTTTTTTTTTTT FDIK        TELAPSE    10681.86 TCPU    10344.34
 SPIN LOCKING: NO ENERGY GAP COMPUTED
 TTTTTTTTTTTTTTTTTTTTTTTTTTTTTT PDIG        TELAPSE    10687.64 TCPU    10348.21
 CHARGE NORMALIZATION FACTOR   1.00000000
 TOTAL ATOMIC CHARGES:
  18.0380841  18.0961862  18.0380923  18.0961930  18.0380891  18.0961543
  18.0380961  18.0961594   7.4430076   7.4427169   7.4430041   7.4427099
   7.4429993   7.4426841   7.4429992   7.4426849   7.4397485   7.4397463
   7.4397445   7.4397469   7.4397495   7.4397453   7.4397417   7.4397457
   0.1752714   0.1752712   0.1752707   0.1752711   0.1752718   0.1752716
   0.1752717   0.1752716
 SUMMED SPIN DENSITY           1.00000000
 TOTAL ATOMIC SPINS  :
   0.6241755  -0.4297140   0.6241764  -0.4297142   0.6241494  -0.4296438
   0.6241497  -0.4296441   0.1177950  -0.1194823   0.1177938  -0.1194814
   0.1177958  -0.1194887   0.1177960  -0.1194887   0.0285714   0.0285706
   0.0285711   0.0285718   0.0285871   0.0285867   0.0285871   0.0285875
   0.0000240   0.0000241   0.0000241   0.0000241   0.0000240   0.0000240
   0.0000240   0.0000240
 TTTTTTTTTTTTTTTTTTTTTTTTTTTTTT MOQGAD      TELAPSE    10687.69 TCPU    10348.26
 TTTTTTTTTTTTTTTTTTTTTTTTTTTTTT SHELLXN     TELAPSE    11230.03 TCPU    10886.84
 TTTTTTTTTTTTTTTTTTTTTTTTTTTTTT MONMO3      TELAPSE    11273.83 TCPU    10930.66
 NUMERICALLY INTEGRATED DENSITY    132.9998385872    131.9998425778
 TTTTTTTTTTTTTTTTTTTTTTTTTTTTTT NUMDFT      TELAPSE    11282.78 TCPU    10939.61
 CYC  17 ETOT(AU) -1.842154104631E+03 DETOT -2.57E-09 tst  6.67E-10 PX  5.03E-05
 CYCLE 17 WAVE FUNCTION SAVED IN FORTRAN UNIT 79
 TTTTTTTTTTTTTTTTTTTTTTTTTTTTTT DIIS        TELAPSE    11297.74 TCPU    10952.04
 DIIS TEST: 0.51924E-07 AT SCF   CYCLE  17 - DIIS ACTIVE - HISTORY:    17 CYCLES
 TTTTTTTTTTTTTTTTTTTTTTTTTTTTTT FDIK        TELAPSE    11318.24 TCPU    10958.04
 SPIN LOCKING: NO ENERGY GAP COMPUTED
 TTTTTTTTTTTTTTTTTTTTTTTTTTTTTT PDIG        TELAPSE    11321.77 TCPU    10961.35
 CHARGE NORMALIZATION FACTOR   1.00000000
 TOTAL ATOMIC CHARGES:
  18.0380840  18.0961764  18.0380923  18.0961833  18.0380869  18.0961525
  18.0380941  18.0961575   7.4430061   7.4426946   7.4430024   7.4426875
   7.4430079   7.4427086   7.4430077   7.4427094   7.4397489   7.4397464
   7.4397449   7.4397470   7.4397548   7.4397505   7.4397469   7.4397509
   0.1752703   0.1752701   0.1752696   0.1752700   0.1752697   0.1752696
   0.1752696   0.1752696
 SUMMED SPIN DENSITY           1.00000000
 TOTAL ATOMIC SPINS  :
   0.6241747  -0.4297024   0.6241756  -0.4297026   0.6241586  -0.4296561
   0.6241589  -0.4296565   0.1177941  -0.1194870   0.1177930  -0.1194861
   0.1177927  -0.1194828   0.1177929  -0.1194828   0.0285725   0.0285718
   0.0285723   0.0285729   0.0285830   0.0285826   0.0285831   0.0285835
   0.0000243   0.0000243   0.0000243   0.0000243   0.0000243   0.0000243
   0.0000243   0.0000243
 TTTTTTTTTTTTTTTTTTTTTTTTTTTTTT MOQGAD      TELAPSE    11321.82 TCPU    10961.40
 TTTTTTTTTTTTTTTTTTTTTTTTTTTTTT SHELLXN     TELAPSE    11865.62 TCPU    11499.76
 TTTTTTTTTTTTTTTTTTTTTTTTTTTTTT MONMO3      TELAPSE    11907.23 TCPU    11541.39
 NUMERICALLY INTEGRATED DENSITY    132.9998385883    131.9998425809
 TTTTTTTTTTTTTTTTTTTTTTTTTTTTTT NUMDFT      TELAPSE    11916.18 TCPU    11550.34
 CYC  18 ETOT(AU) -1.842154104631E+03 DETOT -7.48E-10 tst  9.45E-11 PX  2.56E-05
 CYCLE 18 WAVE FUNCTION SAVED IN FORTRAN UNIT 79
 TTTTTTTTTTTTTTTTTTTTTTTTTTTTTT DIIS        TELAPSE    11930.49 TCPU    11555.57
 DIIS TEST: 0.21966E-07 AT SCF   CYCLE  18 - DIIS ACTIVE - HISTORY:    18 CYCLES
 TTTTTTTTTTTTTTTTTTTTTTTTTTTTTT FDIK        TELAPSE    11950.33 TCPU    11564.66
 SPIN LOCKING: NO ENERGY GAP COMPUTED
 TTTTTTTTTTTTTTTTTTTTTTTTTTTTTT PDIG        TELAPSE    11954.05 TCPU    11568.39
 CHARGE NORMALIZATION FACTOR   1.00000000
 TOTAL ATOMIC CHARGES:
  18.0380837  18.0961726  18.0380920  18.0961796  18.0380853  18.0961571
  18.0380925  18.0961621   7.4430085   7.4427087   7.4430048   7.4427015
   7.4430048   7.4426983   7.4430047   7.4426992   7.4397508   7.4397481
   7.4397468   7.4397487   7.4397524   7.4397480   7.4397444   7.4397484
   0.1752698   0.1752696   0.1752692   0.1752696   0.1752697   0.1752696
   0.1752697   0.1752696
 SUMMED SPIN DENSITY           1.00000000
 TOTAL ATOMIC SPINS  :
   0.6241731  -0.4296895   0.6241739  -0.4296896   0.6241654  -0.4296673
   0.6241658  -0.4296677   0.1177922  -0.1194839   0.1177910  -0.1194830
   0.1177920  -0.1194850   0.1177922  -0.1194850   0.0285737   0.0285730
   0.0285735   0.0285741   0.0285788   0.0285783   0.0285788   0.0285792
   0.0000245   0.0000245   0.0000245   0.0000245   0.0000245   0.0000245
   0.0000245   0.0000245
 TTTTTTTTTTTTTTTTTTTTTTTTTTTTTT MOQGAD      TELAPSE    11954.10 TCPU    11568.43
 TTTTTTTTTTTTTTTTTTTTTTTTTTTTTT SHELLXN     TELAPSE    12499.07 TCPU    12106.67
 TTTTTTTTTTTTTTTTTTTTTTTTTTTTTT MONMO3      TELAPSE    12537.40 TCPU    12145.03
 NUMERICALLY INTEGRATED DENSITY    132.9998385874    131.9998425817
 TTTTTTTTTTTTTTTTTTTTTTTTTTTTTT NUMDFT      TELAPSE    12546.38 TCPU    12154.01
 CYC  19 ETOT(AU) -1.842154104632E+03 DETOT -2.92E-10 tst  1.19E-10 PX  2.04E-05
 CYCLE 19 WAVE FUNCTION SAVED IN FORTRAN UNIT 79
 TTTTTTTTTTTTTTTTTTTTTTTTTTTTTT DIIS        TELAPSE    12563.35 TCPU    12169.94
 DIIS TEST: 0.53990E-08 AT SCF   CYCLE  19 - DIIS ACTIVE - HISTORY:    19 CYCLES
 TTTTTTTTTTTTTTTTTTTTTTTTTTTTTT FDIK        TELAPSE    12587.69 TCPU    12181.58
 SPIN LOCKING: NO ENERGY GAP COMPUTED
 TTTTTTTTTTTTTTTTTTTTTTTTTTTTTT PDIG        TELAPSE    12594.11 TCPU    12182.31
 CHARGE NORMALIZATION FACTOR   1.00000000
 TOTAL ATOMIC CHARGES:
  18.0380846  18.0961699  18.0380931  18.0961770  18.0380871  18.0961649
  18.0380944  18.0961701   7.4430057   7.4427019   7.4430021   7.4426947
   7.4430043   7.4427010   7.4430042   7.4427019   7.4397490   7.4397466
   7.4397450   7.4397473   7.4397517   7.4397474   7.4397437   7.4397478
   0.1752709   0.1752707   0.1752703   0.1752706   0.1752706   0.1752705
   0.1752706   0.1752705
 SUMMED SPIN DENSITY           1.00000000
 TOTAL ATOMIC SPINS  :
   0.6241712  -0.4296824   0.6241719  -0.4296826   0.6241679  -0.4296715
   0.6241682  -0.4296718   0.1177920  -0.1194850   0.1177908  -0.1194841
   0.1177913  -0.1194841   0.1177915  -0.1194840   0.0285744   0.0285737
   0.0285743   0.0285748   0.0285768   0.0285763   0.0285768   0.0285772
   0.0000246   0.0000246   0.0000246   0.0000245   0.0000246   0.0000246
   0.0000245   0.0000246
 TTTTTTTTTTTTTTTTTTTTTTTTTTTTTT MOQGAD      TELAPSE    12594.16 TCPU    12182.36
 TTTTTTTTTTTTTTTTTTTTTTTTTTTTTT SHELLXN     TELAPSE    13143.06 TCPU    12724.32
 TTTTTTTTTTTTTTTTTTTTTTTTTTTTTT MONMO3      TELAPSE    13180.36 TCPU    12761.62
 NUMERICALLY INTEGRATED DENSITY    132.9998385854    131.9998425803
 TTTTTTTTTTTTTTTTTTTTTTTTTTTTTT NUMDFT      TELAPSE    13189.33 TCPU    12770.59
 CYC  20 ETOT(AU) -1.842154104633E+03 DETOT -1.62E-09 tst  2.20E-11 PX  1.05E-05
 CYCLE 20 WAVE FUNCTION SAVED IN FORTRAN UNIT 79
 TTTTTTTTTTTTTTTTTTTTTTTTTTTTTT DIIS        TELAPSE    13205.34 TCPU    12781.44
 DIIS TEST: 0.16703E-08 AT SCF   CYCLE  20 - DIIS ACTIVE - HISTORY:    20 CYCLES
 TTTTTTTTTTTTTTTTTTTTTTTTTTTTTT FDIK        TELAPSE    13229.09 TCPU    12792.02
 SPIN LOCKING: NO ENERGY GAP COMPUTED
 TTTTTTTTTTTTTTTTTTTTTTTTTTTTTT PDIG        TELAPSE    13234.71 TCPU    12797.64
 CHARGE NORMALIZATION FACTOR   1.00000000
 TOTAL ATOMIC CHARGES:
  18.0380841  18.0961669  18.0380926  18.0961743  18.0380860  18.0961640
  18.0380933  18.0961689   7.4430073   7.4427054   7.4430037   7.4426982
   7.4430049   7.4427004   7.4430047   7.4427013   7.4397502   7.4397476
   7.4397461   7.4397482   7.4397522   7.4397478   7.4397441   7.4397482
   0.1752702   0.1752700   0.1752696   0.1752700   0.1752700   0.1752699
   0.1752700   0.1752699
 SUMMED SPIN DENSITY           1.00000000
 TOTAL ATOMIC SPINS  :
   0.6241705  -0.4296799   0.6241712  -0.4296800   0.6241690  -0.4296743
   0.6241694  -0.4296749   0.1177918  -0.1194844   0.1177906  -0.1194835
   0.1177913  -0.1194844   0.1177915  -0.1194843   0.0285750   0.0285743
   0.0285748   0.0285754   0.0285761   0.0285757   0.0285761   0.0285765
   0.0000246   0.0000246   0.0000246   0.0000246   0.0000246   0.0000246
   0.0000246   0.0000246
 TTTTTTTTTTTTTTTTTTTTTTTTTTTTTT MOQGAD      TELAPSE    13234.76 TCPU    12797.69
 TTTTTTTTTTTTTTTTTTTTTTTTTTTTTT SHELLXN     TELAPSE    13779.89 TCPU    13336.68
 TTTTTTTTTTTTTTTTTTTTTTTTTTTTTT MONMO3      TELAPSE    13819.03 TCPU    13375.85
 NUMERICALLY INTEGRATED DENSITY    132.9998385862    131.9998425813
 TTTTTTTTTTTTTTTTTTTTTTTTTTTTTT NUMDFT      TELAPSE    13827.97 TCPU    13384.79
 CYC  21 ETOT(AU) -1.842154104632E+03 DETOT  9.75E-10 tst  5.93E-12 PX  5.06E-06
 CYCLE 21 WAVE FUNCTION SAVED IN FORTRAN UNIT 79
 TTTTTTTTTTTTTTTTTTTTTTTTTTTTTT DIIS        TELAPSE    13843.41 TCPU    13399.55
 DIIS TEST: 0.43479E-09 AT SCF   CYCLE  21 - DIIS ACTIVE - HISTORY:    21 CYCLES
 TTTTTTTTTTTTTTTTTTTTTTTTTTTTTT FDIK        TELAPSE    13864.92 TCPU    13411.72
 SPIN LOCKING: NO ENERGY GAP COMPUTED
 TTTTTTTTTTTTTTTTTTTTTTTTTTTTTT PDIG        TELAPSE    13868.59 TCPU    13413.31
 CHARGE NORMALIZATION FACTOR   1.00000000
 TOTAL ATOMIC CHARGES:
  18.0380843  18.0961675  18.0380929  18.0961744  18.0380858  18.0961641
  18.0380932  18.0961701   7.4430067   7.4427045   7.4430031   7.4426973
   7.4430046   7.4427004   7.4430044   7.4427013   7.4397502   7.4397477
   7.4397461   7.4397483   7.4397522   7.4397477   7.4397441   7.4397482
   0.1752704   0.1752702   0.1752698   0.1752702   0.1752702   0.1752701
   0.1752701   0.1752700
 SUMMED SPIN DENSITY           1.00000000
 TOTAL ATOMIC SPINS  :
   0.6241698  -0.4296778   0.6241705  -0.4296783   0.6241693  -0.4296761
   0.6241696  -0.4296758   0.1177919  -0.1194846   0.1177907  -0.1194837
   0.1177913  -0.1194843   0.1177915  -0.1194843   0.0285753   0.0285746
   0.0285752   0.0285757   0.0285758   0.0285753   0.0285758   0.0285762
   0.0000246   0.0000246   0.0000246   0.0000246   0.0000246   0.0000246
   0.0000246   0.0000246
 TTTTTTTTTTTTTTTTTTTTTTTTTTTTTT MOQGAD      TELAPSE    13868.64 TCPU    13413.36
 TTTTTTTTTTTTTTTTTTTTTTTTTTTTTT SHELLXN     TELAPSE    14411.95 TCPU    13952.66
 TTTTTTTTTTTTTTTTTTTTTTTTTTTTTT MONMO3      TELAPSE    14451.46 TCPU    13992.20
 NUMERICALLY INTEGRATED DENSITY    132.9998385859    131.9998425809
 TTTTTTTTTTTTTTTTTTTTTTTTTTTTTT NUMDFT      TELAPSE    14460.40 TCPU    14001.15
 CYC  22 ETOT(AU) -1.842154104633E+03 DETOT -1.52E-10 tst  2.20E-12 PX  3.11E-06
 CYCLE 22 WAVE FUNCTION SAVED IN FORTRAN UNIT 79
 TTTTTTTTTTTTTTTTTTTTTTTTTTTTTT DIIS        TELAPSE    14478.74 TCPU    14012.09
 DIIS TEST: 0.22431E-09 AT SCF   CYCLE  22 - DIIS ACTIVE - HISTORY:    22 CYCLES
 TTTTTTTTTTTTTTTTTTTTTTTTTTTTTT FDIK        TELAPSE    14503.63 TCPU    14022.17
 SPIN LOCKING: NO ENERGY GAP COMPUTED
 TTTTTTTTTTTTTTTTTTTTTTTTTTTTTT PDIG        TELAPSE    14507.51 TCPU    14022.89
 CHARGE NORMALIZATION FACTOR   1.00000000
 TOTAL ATOMIC CHARGES:
  18.0380843  18.0961653  18.0380929  18.0961745  18.0380860  18.0961675
  18.0380934  18.0961683   7.4430070   7.4427047   7.4430034   7.4426975
   7.4430048   7.4427006   7.4430047   7.4427015   7.4397499   7.4397473
   7.4397460   7.4397481   7.4397522   7.4397478   7.4397437   7.4397479
   0.1752704   0.1752702   0.1752697   0.1752701   0.1752702   0.1752700
   0.1752701   0.1752700
 SUMMED SPIN DENSITY           1.00000000
 TOTAL ATOMIC SPINS  :
   0.6241695  -0.4296782   0.6241702  -0.4296768   0.6241694  -0.4296748
   0.6241697  -0.4296785   0.1177919  -0.1194846   0.1177907  -0.1194836
   0.1177914  -0.1194844   0.1177916  -0.1194842   0.0285755   0.0285748
   0.0285754   0.0285759   0.0285757   0.0285752   0.0285757   0.0285761
   0.0000246   0.0000246   0.0000245   0.0000245   0.0000245   0.0000246
   0.0000245   0.0000245
 TTTTTTTTTTTTTTTTTTTTTTTTTTTTTT MOQGAD      TELAPSE    14507.57 TCPU    14022.94
 TTTTTTTTTTTTTTTTTTTTTTTTTTTTTT SHELLXN     TELAPSE    15050.93 TCPU    14561.49
 TTTTTTTTTTTTTTTTTTTTTTTTTTTTTT MONMO3      TELAPSE    15093.77 TCPU    14604.36
 NUMERICALLY INTEGRATED DENSITY    132.9998385860    131.9998425809
 TTTTTTTTTTTTTTTTTTTTTTTTTTTTTT NUMDFT      TELAPSE    15102.73 TCPU    14613.31
 CYC  23 ETOT(AU) -1.842154104632E+03 DETOT  5.91E-12 tst  8.19E-13 PX  3.15E-06
 CYCLE 23 WAVE FUNCTION SAVED IN FORTRAN UNIT 79
 TTTTTTTTTTTTTTTTTTTTTTTTTTTTTT DIIS        TELAPSE    15121.04 TCPU    14624.75
 DIIS TEST: 0.15750E-09 AT SCF   CYCLE  23 - DIIS ACTIVE - HISTORY:    23 CYCLES
 TTTTTTTTTTTTTTTTTTTTTTTTTTTTTT FDIK        TELAPSE    15148.20 TCPU    14637.40
 SPIN LOCKING: NO ENERGY GAP COMPUTED
 TTTTTTTTTTTTTTTTTTTTTTTTTTTTTT PDIG        TELAPSE    15152.22 TCPU    14639.04
 CHARGE NORMALIZATION FACTOR   1.00000000
 TOTAL ATOMIC CHARGES:
  18.0380843  18.0961697  18.0380929  18.0961695  18.0380860  18.0961572
  18.0380934  18.0961791   7.4430069   7.4427048   7.4430033   7.4426974
   7.4430047   7.4427006   7.4430045   7.4427013   7.4397504   7.4397478
   7.4397458   7.4397480   7.4397515   7.4397471   7.4397446   7.4397487
   0.1752703   0.1752701   0.1752697   0.1752701   0.1752701   0.1752700
   0.1752701   0.1752700
 SUMMED SPIN DENSITY           1.00000000
 TOTAL ATOMIC SPINS  :
   0.6241693  -0.4296742   0.6241700  -0.4296799   0.6241694  -0.4296832
   0.6241697  -0.4296710   0.1177920  -0.1194845   0.1177908  -0.1194838
   0.1177914  -0.1194841   0.1177916  -0.1194845   0.0285756   0.0285749
   0.0285755   0.0285761   0.0285756   0.0285751   0.0285757   0.0285761
   0.0000245   0.0000245   0.0000245   0.0000245   0.0000245   0.0000245
   0.0000245   0.0000245
 TTTTTTTTTTTTTTTTTTTTTTTTTTTTTT MOQGAD      TELAPSE    15152.26 TCPU    14639.09
 TTTTTTTTTTTTTTTTTTTTTTTTTTTTTT SHELLXN     TELAPSE    15691.24 TCPU    15178.26
 +++ ENERGIES IN A.U. +++
 ::: EXT EL-POLE                                  -9.4210964125590E+03
 ::: EXT EL-SPHEROPOLE                             4.5894118271853E+01
 ::: BIELET ZONE E-E                               1.0259653939712E+04
 ::: TOTAL E-E                                     8.8445164542516E+02
 ::: TOTAL E-N + N-E                              -2.9316209818484E+03
 ::: TOTAL N-N                                    -8.2862678999312E+02
 ::: KINETIC ENERGY                                1.1970956179807E+03
 ::: PSEUDO TOTAL   ENERGY                        -1.6787005084357E+03
 ::: VIRIAL COEFFICIENT                            8.3253162975253E-01
 TTTTTTTTTTTTTTTTTTTTTTTTTTTTTT MONMO3      TELAPSE    15732.45 TCPU    15219.47
 NUMERICALLY INTEGRATED DENSITY    132.9998385860    131.9998425809
 TTTTTTTTTTTTTTTTTTTTTTTTTTTTTT NUMDFT      TELAPSE    15741.42 TCPU    15228.45
 CYC  24 ETOT(AU) -1.842154104632E+03 DETOT  1.38E-10 tst  1.23E-11 PX  3.15E-06

 == SCF ENDED - CONVERGENCE ON ENERGY      E(AU) -1.8421541046324E+03 CYCLES  24


 ENERGY EXPRESSION=HARTREE+FOCK EXCH*0.25000+(PBE        EXCH)*0.75000+PBE        CORR

 FINITE TEMPERATURE DFT CALCULATION 
 TEMPERATURE      (T)    1.000000000000E-13 HARTREE 
 ENERGY           (E)   -1.842154104632E+03
 FREE ENERGY      (F)   -1.842154104632E+03
 ELECTRON ENTROPY (S)    0.000000000000E+00
 (E(T)+F(T))/2    (E0)  -1.842154104632E+03


 TOTAL ENERGY(DFT)(AU)( 24) -1.8421541046324E+03 DE 1.4E-10 tester 1.2E-11
 TTTTTTTTTTTTTTTTTTTTTTTTTTTTTT EDFT        TELAPSE    15741.72 TCPU    15228.46
 EIGENVECTORS IN FORTRAN UNIT  8
 TTTTTTTTTTTTTTTTTTTTTTTTTTTTTT END         TELAPSE    15745.66 TCPU    15232.27
 EEEEEEEEEE TERMINATION  DATE 27 06 2018 TIME 15:39:32.2
NODE    0 CPU TIME =     15232.274
NODE    1 CPU TIME =     15206.719
NODE    2 CPU TIME =     15266.743
NODE    3 CPU TIME =     15196.631
NODE    4 CPU TIME =     15290.136
NODE    5 CPU TIME =     15199.501
NODE    6 CPU TIME =     15251.274
NODE    7 CPU TIME =     15200.496
NODE    8 CPU TIME =     15281.949
NODE    9 CPU TIME =     15240.490
NODE   10 CPU TIME =     15288.166
NODE   11 CPU TIME =     15228.141
NODE   12 CPU TIME =     15287.478
NODE   13 CPU TIME =     15169.518
NODE   14 CPU TIME =     15197.584
NODE   15 CPU TIME =     15280.454
NODE   16 CPU TIME =     15298.192
NODE   17 CPU TIME =     15181.319
NODE   18 CPU TIME =     15250.341
NODE   19 CPU TIME =     15157.309
    TOTAL CPU TIME =    304704.715
