--------------------------------------------------------------------------
WARNING: No preset parameters were found for the device that Open MPI
detected:

  Local host:            golub131
  Device name:           mlx4_0
  Device vendor ID:      0x02c9
  Device vendor part ID: 4099

Default device parameters will be used, which may result in lower
performance.  You can edit any of the files specified by the
btl_openib_device_param_files MCA parameter to set values for your
device.

NOTE: You can turn off this warning by setting the MCA parameter
      btl_openib_warn_no_device_params_found to 0.
--------------------------------------------------------------------------
 PROCESS            5  OF           32  WORKING
 PROCESS            6  OF           32  WORKING
 PROCESS            7  OF           32  WORKING
 PROCESS            8  OF           32  WORKING
 PROCESS           10  OF           32  WORKING
 PROCESS           14  OF           32  WORKING
 PROCESS            4  OF           32  WORKING
 PROCESS            3  OF           32  WORKING
 PROCESS           11  OF           32  WORKING
 PROCESS            9  OF           32  WORKING
 PROCESS           12  OF           32  WORKING
 PROCESS           16  OF           32  WORKING
 PROCESS           17  OF           32  WORKING
 PROCESS           26  OF           32  WORKING
 PROCESS           19  OF           32  WORKING
 PROCESS           29  OF           32  WORKING
 PROCESS           20  OF           32  WORKING
 PROCESS           18  OF           32  WORKING
 PROCESS           23  OF           32  WORKING
 PROCESS           30  OF           32  WORKING
 PROCESS           31  OF           32  WORKING
 PROCESS            1  OF           32  WORKING
 PROCESS            2  OF           32  WORKING
 PROCESS           15  OF           32  WORKING
 PROCESS           22  OF           32  WORKING
 PROCESS           24  OF           32  WORKING
 PROCESS           27  OF           32  WORKING
 PROCESS           25  OF           32  WORKING
 PROCESS           21  OF           32  WORKING
 PROCESS           28  OF           32  WORKING
 PROCESS           13  OF           32  WORKING
 PROCESS            0  OF           32  WORKING

         
 *******************************************************************************
 *                                                                             *
 *                               CRYSTAL17                                     *
 *                      public : 1.0.1 - Jun 21st, 2017                        *
 *                       HTTP://WWW.CRYSTAL.UNITO.IT                           *
 *                                                                             *
 *                              MAIN AUTHORS                                   *
 *                                                                             *
 *  R. DOVESI(1,11), V.R. SAUNDERS(2), C. ROETTI(1,11), R. ORLANDO(1,11),      *
 *  C.M. ZICOVICH-WILSON(1,3), F. PASCALE(4), B. CIVALLERI(1,11),              *
 *  K. DOLL(5), N.M. HARRISON(2,6), I.J. BUSH(7), Ph. D'ARCO(8),               *
 *  M. LLUNELL(9), M. CAUSA'(10), Y. NOEL(8), L. MASCHIO(1,11), A. ERBA(1,11)  *
 *  M. RE'RAT(14), S. CASASSA(1,11)                                            *
 *                                                                             *
 *        CONTRIBUTIONS TO THE CODE HAVE ALSO BEEN GIVEN BY                    *
 *                                                                             *
 *  M. FERRABONE(1,11), M. DE LA PIERRE(1,11), M. FERRERO(1,11),               *
 *  J. BAIMA(1,11), E. ALBANESE(1,11), M.F. PEINTINGER(12), R. BAST(13),       *
 *  B. KIRTMAN(15), V. LACIVITA(1,11), R. DEMICHELIS(1,16)                     *
 *  G. BRANDEBURG(17), S. SALUSTRO(1,11), G. SANSONE(1,11)                     *
 *  M.T. RUGGIERO(18)                                                          *
 *                                                                             *
 * (1) THEORETICAL CHEMISTRY GROUP - UNIVERSITA' DI TORINO - TORINO (ITALY)    *

 * (2) COMPUTATIONAL SCIENCE & ENGINEERING DEPARTMENT - STFC DARESBURY (UK)    *
 * (3) UNIVERSIDAD AUTONOMA DEL ESTADO DE MORELOS - CUERNAVACA (MEXICO)        *
 * (4) UNIVERSITE' DE LORRAINE - NANCY (FRANCE)                                *
 * (5) UNIVERSITAET STUTTGART- STUTTGART (GERMANY)                             *
 * (6) IMPERIAL COLLEGE - LONDON (UK)                                          *
 * (7) OXFORD E-RESEARCH CENTRE - OXFORD (UK)                                  *
 * (8) UPMC - SORBONNE UNIVERSITES - PARIS (FRANCE)                            *
 * (9) UNIVERSIDAD DE BARCELONA - BARCELONA (SPAIN)                            *
 *(10) UNIVERSITA' DI NAPOLI "FEDERICO II" - NAPOLI (ITALY)                    *
 *(11) NIS - NANOSTRUCTURED INTERFACES AND SURFACES - TORINO (ITALY)           *
 *(12) MPI FUER CHEMISCHE ENERGIEKONVERSION - MUELHEIM AN DER RUHR (GERMANY)   *
 *(13) UNIVERSITY OF TROMSO - TROMSO (NORWAY)                                  *
 *(14) UNIVERSITE' DE PAU ET DES PAYS DE L'ADOUR - PAU (FRANCE)                *
 *(15) UNIVERSITY OF CALIFORNIA SANTA BARBARA - SANTA BARBARA (USA)            *
 *(16) CURTIN UNIVERSITY - PERTH (AUSTRALIA)                                   *
 *(17) UNIVERSITY COLLEGE LONDON - LONDON (UK)                                 *
 *(18) CAMBRIDGE UNIVERSITY - CAMBRIDGE (UK)                                   *
 *                                                                             *
 *******************************************************************************
 EEEEEEEEEE STARTING  DATE 21 01 2018 TIME 12:25:36.5
 Generated by CrystalWriter                                                      

 CRYSTAL CALCULATION
 (INPUT ACCORDING TO THE INTERNATIONAL TABLES FOR X-RAY CRYSTALLOGRAPHY)
 CRYSTAL FAMILY                       :  TETRAGONAL  
 CRYSTAL CLASS  (GROTH - 1921)        :  DITETRAGONAL PYRAMIDAL               

 SPACE GROUP (NONCENTROSYMMETRIC)     :  P 4 M M         

 LATTICE PARAMETERS  (ANGSTROMS AND DEGREES) - CONVENTIONAL CELL
        A           B           C        ALPHA        BETA       GAMMA
     3.92785     3.92785     3.43380    90.00000    90.00000    90.00000


 NUMBER OF IRREDUCIBLE ATOMS IN THE CONVENTIONAL CELL:    4

 INPUT COORDINATES

 ATOM AT. N.              COORDINATES
   1 238     0.000000000000E+00  0.000000000000E+00  5.000000000000E-01
   2 229     5.000000000000E-01  5.000000000000E-01  0.000000000000E+00
   3 208     0.000000000000E+00  5.000000000000E-01  0.000000000000E+00
   4 208     5.000000000000E-01  0.000000000000E+00  0.000000000000E+00

 *******************************************************************************

 << INFORMATION >>: FROM NOW ON, ALL COORDINATES REFER TO THE PRIMITIVE CELL

 *******************************************************************************

 LATTICE PARAMETERS  (ANGSTROMS AND DEGREES) - PRIMITIVE CELL
       A          B          C        ALPHA      BETA     GAMMA        VOLUME
    3.92785    3.92785    3.43380    90.00000  90.00000  90.00000     52.976686

 INPUT LIST - ATOM N.   4 NOT IRREDUCIBLE

 COORDINATES OF THE EQUIVALENT ATOMS (FRACTIONAL UNITS)

 N. ATOM EQUIV AT. N.          X                  Y                  Z

   1   1   1  238 SR    0.00000000000E+00  0.00000000000E+00 -5.00000000000E-01

   2   2   1  229 CU   -5.00000000000E-01 -5.00000000000E-01  0.00000000000E+00

   3   3   1  208 O     0.00000000000E+00 -5.00000000000E-01  0.00000000000E+00
   4   3   2  208 O     5.00000000000E-01  0.00000000000E+00  0.00000000000E+00

 NUMBER OF SYMMETRY OPERATORS         :    8
 *******************************************************************************
 * GEOMETRY EDITING - INPUT COORDINATES ARE GIVEN IN ANGSTROM         
 *******************************************************************************

 GEOMETRY NOW FULLY CONSISTENT WITH THE GROUP

 NO SYMMOPS WITH FINITE TRANSLATIONAL COMPONENT

 *******************************************************************************
 * SUPERCELL OPTION
 *******************************************************************************


        EXPANSION MATRIX OF PRIMITIVE CELL
 E1     2.000     0.000     0.000
 E2     0.000     2.000     0.000
 E3     0.000     0.000     1.000

 NUMBER OF ATOMS PER SUPERCELL    16

        DIRECT LATTICE VECTORS COMPONENTS (ANGSTROM)
 B1     7.856     0.000     0.000
 B2     0.000     7.856     0.000
 B3     0.000     0.000     3.434

 LATTICE PARAMETERS  (ANGSTROM AND DEGREES)
       A          B          C         ALPHA     BETA     GAMMA        VOLUME
    7.85570    7.85570    3.43380    90.00000  90.00000  90.00000    211.906743


 **** ATOMS BELONGING TO THE SUPERCELL
 LABEL AT.NO.      COORDINATES (ANGSTROM AND FRACTIONAL)
     1   238     0.0000     0.0000    -1.7169     0.0000     0.0000    -0.5000
     2   238     0.0000     3.9278    -1.7169     0.0000     0.5000    -0.5000
     3   238    -3.9278     0.0000    -1.7169    -0.5000     0.0000    -0.5000
     4   238    -3.9278     3.9278    -1.7169    -0.5000     0.5000    -0.5000
     5   229    -1.9639    -1.9639     0.0000    -0.2500    -0.2500     0.0000
     6   229    -1.9639     1.9639     0.0000    -0.2500     0.2500     0.0000
     7   229     1.9639    -1.9639     0.0000     0.2500    -0.2500     0.0000
     8   229     1.9639     1.9639     0.0000     0.2500     0.2500     0.0000
     9   208     0.0000    -1.9639     0.0000     0.0000    -0.2500     0.0000
    10   208     0.0000     1.9639     0.0000     0.0000     0.2500     0.0000
    11   208    -3.9278    -1.9639     0.0000    -0.5000    -0.2500     0.0000
    12   208    -3.9278     1.9639     0.0000    -0.5000     0.2500     0.0000
    13   208    -1.9639     0.0000     0.0000    -0.2500     0.0000     0.0000
    14   208    -1.9639     3.9278     0.0000    -0.2500     0.5000     0.0000
    15   208     1.9639     0.0000     0.0000     0.2500     0.0000     0.0000
    16   208     1.9639     3.9278     0.0000     0.2500     0.5000     0.0000

 **************************** SUPERCELL GENERATED ****************************
 *********************************************************************
                        ATOMIC SITE SYMMETRIES
 *********************************************************************


 ATOM   1 ATOMIC NUMBER 238 - NUMBER OF SYMMOPS WHICH DO NOT MOVE THE ATOM   8
 SEQUENCE NUMBERS OF THE SYMMOPS
    1    2    3    4    5    6    7    8
 NO EQUIVALENT ATOMS


 ATOM   2 ATOMIC NUMBER 238 - NUMBER OF SYMMOPS WHICH DO NOT MOVE THE ATOM   4
 SEQUENCE NUMBERS OF THE SYMMOPS
    1    2    5    6
 NUMBER OF ATOMS EQUIVALENT BY SYMMETRY    1
 SEQUENCE NUMBERS OF THESE ATOMS
    3
 SEQUENCE NUMBERS OF THE CORRESPONDING SYMMOPS
    3


 ATOM   3 ATOMIC NUMBER 238 - NUMBER OF SYMMOPS WHICH DO NOT MOVE THE ATOM   4
 SEQUENCE NUMBERS OF THE SYMMOPS
    1    2    5    6
 NUMBER OF ATOMS EQUIVALENT BY SYMMETRY    1
 SEQUENCE NUMBERS OF THESE ATOMS
    2
 SEQUENCE NUMBERS OF THE CORRESPONDING SYMMOPS
    3


 ATOM   4 ATOMIC NUMBER 238 - NUMBER OF SYMMOPS WHICH DO NOT MOVE THE ATOM   8
 SEQUENCE NUMBERS OF THE SYMMOPS
    1    2    3    4    5    6    7    8
 NO EQUIVALENT ATOMS


 ATOM   5 ATOMIC NUMBER 229 - NUMBER OF SYMMOPS WHICH DO NOT MOVE THE ATOM   2
 SEQUENCE NUMBERS OF THE SYMMOPS
    1    7
 NUMBER OF ATOMS EQUIVALENT BY SYMMETRY    3
 SEQUENCE NUMBERS OF THESE ATOMS
    8    7    6
 SEQUENCE NUMBERS OF THE CORRESPONDING SYMMOPS
    2    3    4


 ATOM   6 ATOMIC NUMBER 229 - NUMBER OF SYMMOPS WHICH DO NOT MOVE THE ATOM   2
 SEQUENCE NUMBERS OF THE SYMMOPS
    1    8
 NUMBER OF ATOMS EQUIVALENT BY SYMMETRY    3
 SEQUENCE NUMBERS OF THESE ATOMS
    7    5    8
 SEQUENCE NUMBERS OF THE CORRESPONDING SYMMOPS
    2    3    4


 ATOM   7 ATOMIC NUMBER 229 - NUMBER OF SYMMOPS WHICH DO NOT MOVE THE ATOM   2
 SEQUENCE NUMBERS OF THE SYMMOPS
    1    8
 NUMBER OF ATOMS EQUIVALENT BY SYMMETRY    3
 SEQUENCE NUMBERS OF THESE ATOMS
    6    8    5
 SEQUENCE NUMBERS OF THE CORRESPONDING SYMMOPS
    2    3    4


 ATOM   8 ATOMIC NUMBER 229 - NUMBER OF SYMMOPS WHICH DO NOT MOVE THE ATOM   2
 SEQUENCE NUMBERS OF THE SYMMOPS
    1    7
 NUMBER OF ATOMS EQUIVALENT BY SYMMETRY    3
 SEQUENCE NUMBERS OF THESE ATOMS
    5    6    7
 SEQUENCE NUMBERS OF THE CORRESPONDING SYMMOPS
    2    3    4


 ATOM   9 ATOMIC NUMBER 208 - NUMBER OF SYMMOPS WHICH DO NOT MOVE THE ATOM   2
 SEQUENCE NUMBERS OF THE SYMMOPS
    1    5
 NUMBER OF ATOMS EQUIVALENT BY SYMMETRY    3
 SEQUENCE NUMBERS OF THESE ATOMS
   10   15   13
 SEQUENCE NUMBERS OF THE CORRESPONDING SYMMOPS
    2    3    4


 ATOM  10 ATOMIC NUMBER 208 - NUMBER OF SYMMOPS WHICH DO NOT MOVE THE ATOM   2
 SEQUENCE NUMBERS OF THE SYMMOPS
    1    5
 NUMBER OF ATOMS EQUIVALENT BY SYMMETRY    3
 SEQUENCE NUMBERS OF THESE ATOMS
    9   13   15
 SEQUENCE NUMBERS OF THE CORRESPONDING SYMMOPS
    2    3    4


 ATOM  11 ATOMIC NUMBER 208 - NUMBER OF SYMMOPS WHICH DO NOT MOVE THE ATOM   2
 SEQUENCE NUMBERS OF THE SYMMOPS
    1    5
 NUMBER OF ATOMS EQUIVALENT BY SYMMETRY    3
 SEQUENCE NUMBERS OF THESE ATOMS
   12   16   14
 SEQUENCE NUMBERS OF THE CORRESPONDING SYMMOPS
    2    3    4


 ATOM  12 ATOMIC NUMBER 208 - NUMBER OF SYMMOPS WHICH DO NOT MOVE THE ATOM   2
 SEQUENCE NUMBERS OF THE SYMMOPS
    1    5
 NUMBER OF ATOMS EQUIVALENT BY SYMMETRY    3
 SEQUENCE NUMBERS OF THESE ATOMS
   11   14   16
 SEQUENCE NUMBERS OF THE CORRESPONDING SYMMOPS
    2    3    4


 ATOM  13 ATOMIC NUMBER 208 - NUMBER OF SYMMOPS WHICH DO NOT MOVE THE ATOM   2
 SEQUENCE NUMBERS OF THE SYMMOPS
    1    6
 NUMBER OF ATOMS EQUIVALENT BY SYMMETRY    3
 SEQUENCE NUMBERS OF THESE ATOMS
   15    9   10
 SEQUENCE NUMBERS OF THE CORRESPONDING SYMMOPS
    2    3    4


 ATOM  14 ATOMIC NUMBER 208 - NUMBER OF SYMMOPS WHICH DO NOT MOVE THE ATOM   2
 SEQUENCE NUMBERS OF THE SYMMOPS
    1    6
 NUMBER OF ATOMS EQUIVALENT BY SYMMETRY    3
 SEQUENCE NUMBERS OF THESE ATOMS
   16   11   12
 SEQUENCE NUMBERS OF THE CORRESPONDING SYMMOPS
    2    3    4


 ATOM  15 ATOMIC NUMBER 208 - NUMBER OF SYMMOPS WHICH DO NOT MOVE THE ATOM   2
 SEQUENCE NUMBERS OF THE SYMMOPS
    1    6
 NUMBER OF ATOMS EQUIVALENT BY SYMMETRY    3
 SEQUENCE NUMBERS OF THESE ATOMS
   13   10    9
 SEQUENCE NUMBERS OF THE CORRESPONDING SYMMOPS
    2    3    4


 ATOM  16 ATOMIC NUMBER 208 - NUMBER OF SYMMOPS WHICH DO NOT MOVE THE ATOM   2
 SEQUENCE NUMBERS OF THE SYMMOPS
    1    6
 NUMBER OF ATOMS EQUIVALENT BY SYMMETRY    3
 SEQUENCE NUMBERS OF THESE ATOMS
   14   12   11
 SEQUENCE NUMBERS OF THE CORRESPONDING SYMMOPS
    2    3    4

 *****    8 SYMMOPS - TRANSLATORS IN ANGSTROM
 ***** MATRICES AND TRANSLATORS IN THE CARTESIAN REFERENCE FRAME

 ORDER   : ORDER OF THE OPERATOR

 TRANSLA : REAL TRANSLATION (WITHOUT ORIGIN SHIFT) IN CARTESIAN COORDINATES

 uvw/hkl : ORIENTATION OF THE OPERATOR IN CARTESIAN COORDINATES

 LOCATED : ORIGIN OF THE OPERATOR IN CARTESIAN COORDINATES

   NO.   1 INVERSE   1    ORDER   1        NO.   2 INVERSE   2    ORDER   2
    1.000   0.000   0.000     0.000        -1.000   0.000   0.000     0.000
    0.000   1.000   0.000     0.000         0.000  -1.000   0.000     0.000
    0.000   0.000   1.000     0.000         0.000   0.000   1.000     0.000
             OPERATION E(   1)                       OPERATION C(   2)
 DETERMINANT 1.; ROTATION(DEG)   0.      DETERMINANT 1.; ROTATION(DEG) 180.
 TRANSLA (  0.000    0.000    0.000)     TRANSLA (  0.000    0.000    0.000)
 uvw/hkl (  0.000    0.000    0.000)     uvw/hkl (  0.000    0.000    4.000)
 LOCATED (  0.000    0.000    0.000)     LOCATED (  0.000    0.000    0.000)

   NO.   3 INVERSE   4    ORDER   4        NO.   4 INVERSE   3    ORDER   4
    0.000  -1.000   0.000     0.000         0.000   1.000   0.000     0.000
    1.000   0.000   0.000     0.000        -1.000   0.000   0.000     0.000
    0.000   0.000   1.000     0.000         0.000   0.000   1.000     0.000
             OPERATION C(   4)                       OPERATION C(   4)
 DETERMINANT 1.; ROTATION(DEG)  90.      DETERMINANT 1.; ROTATION(DEG)  90.
 TRANSLA (  0.000    0.000    0.000)     TRANSLA (  0.000    0.000    0.000)
 uvw/hkl (  0.000    0.000    2.000)     uvw/hkl (  0.000    0.000    2.000)
 LOCATED (  0.000    0.000    0.000)     LOCATED (  0.000    0.000    0.000)

   NO.   5 INVERSE   5    ORDER   2        NO.   6 INVERSE   6    ORDER   2
   -1.000   0.000   0.000     0.000         1.000   0.000   0.000     0.000
    0.000   1.000   0.000     0.000         0.000  -1.000   0.000     0.000
    0.000   0.000   1.000     0.000         0.000   0.000   1.000     0.000
             OPERATION M(   2)                       OPERATION M(   2)
 DETERMINANT-1.; ROTATION(DEG)   0.      DETERMINANT-1.; ROTATION(DEG)   0.
 TRANSLA (  0.000    0.000    0.000)     TRANSLA (  0.000    0.000    0.000)
 uvw/hkl (  2.000    0.000    0.000)     uvw/hkl (  0.000   -2.000    0.000)
 LOCATED (  0.000    0.000    0.000)     LOCATED (  0.000    0.000    0.000)

   NO.   7 INVERSE   7    ORDER   2        NO.   8 INVERSE   8    ORDER   2
    0.000   1.000   0.000     0.000         0.000  -1.000   0.000     0.000
    1.000   0.000   0.000     0.000        -1.000   0.000   0.000     0.000
    0.000   0.000   1.000     0.000         0.000   0.000   1.000     0.000
             OPERATION M(   2)                       OPERATION M(   2)
 DETERMINANT-1.; ROTATION(DEG)   0.      DETERMINANT-1.; ROTATION(DEG)   0.
 TRANSLA (  0.000    0.000    0.000)     TRANSLA (  0.000    0.000    0.000)
 uvw/hkl (  1.000   -1.000    0.000)     uvw/hkl (  1.000    1.000    0.000)
 LOCATED (  0.000    0.000    0.000)     LOCATED (  0.000    0.000    0.000)
 SSSSSSSSSSSSSSSSSSSSSSSSSSSSSSSSSSSSSSSSSSSSSSSSSSSSSSSSSSSSSSSSSSSSSSSSSSSSSS
 REDUCTION OF SYMMETRY - ATOMIC LABELS SET TO (ATOM, AT. N., LABEL)
   1(238) 1;   2(238) 1;   3(238) 1;   4(238) 1;   5(229) 2;   6(229) 3;
   7(229) 3;   8(229) 3;   9(208) 4;  10(208) 4;  11(208) 4;  12(208) 4;
  13(208) 4;  14(208) 4;  15(208) 4;  16(208) 4;
 THE NUMBER OF SYMMETRY OPERATORS HAS BEEN REDUCED FROM  8 TO  2
 *******************************************************************************

 GCALCO - MAX INDICES DIRECT LATTICE VECTOR    11    11    25
 NO.OF VECTORS CREATED 6999 STARS  550 RMAX   133.78549 BOHR

 GEOMETRY FOR WAVE FUNCTION - DIMENSIONALITY OF THE SYSTEM    3
 (NON PERIODIC DIRECTION: LATTICE PARAMETER FORMALLY SET TO 500)
 *******************************************************************************
 LATTICE PARAMETERS (ANGSTROMS AND DEGREES) - BOHR = 0.5291772083 ANGSTROM
 PRIMITIVE CELL - CENTRING CODE 1/1 VOLUME=   211.906743 - DENSITY  5.731 g/cm^3
         A              B              C           ALPHA      BETA       GAMMA 
     7.85570000     7.85570000     3.43380000    90.000000  90.000000  90.000000
 *******************************************************************************
 ATOMS IN THE ASYMMETRIC UNIT   10 - ATOMS IN THE UNIT CELL:   16
     ATOM                 X/A                 Y/B                 Z/C    
 *******************************************************************************
      1 T 238 SR    0.000000000000E+00  0.000000000000E+00  5.000000000000E-01
      2 T 238 SR    0.000000000000E+00 -5.000000000000E-01  5.000000000000E-01
      3 F 238 SR   -5.000000000000E-01  0.000000000000E+00  5.000000000000E-01
      4 T 238 SR   -5.000000000000E-01 -5.000000000000E-01  5.000000000000E-01
      5 T 229 CU   -2.500000000000E-01 -2.500000000000E-01  0.000000000000E+00
      6 T 229 CU   -2.500000000000E-01  2.500000000000E-01  0.000000000000E+00
      7 F 229 CU    2.500000000000E-01 -2.500000000000E-01  0.000000000000E+00
      8 T 229 CU    2.500000000000E-01  2.500000000000E-01  0.000000000000E+00
      9 T 208 O     0.000000000000E+00 -2.500000000000E-01  0.000000000000E+00
     10 T 208 O     0.000000000000E+00  2.500000000000E-01  0.000000000000E+00
     11 T 208 O    -5.000000000000E-01 -2.500000000000E-01  0.000000000000E+00
     12 T 208 O    -5.000000000000E-01  2.500000000000E-01  0.000000000000E+00
     13 F 208 O    -2.500000000000E-01  0.000000000000E+00  0.000000000000E+00
     14 F 208 O    -2.500000000000E-01 -5.000000000000E-01  0.000000000000E+00
     15 F 208 O     2.500000000000E-01  0.000000000000E+00  0.000000000000E+00
     16 F 208 O     2.500000000000E-01 -5.000000000000E-01  0.000000000000E+00

 T = ATOM BELONGING TO THE ASYMMETRIC UNIT

 ****    2 SYMMOPS - TRANSLATORS IN FRACTIONAL UNITS
 **** MATRICES AND TRANSLATORS IN THE CRYSTALLOGRAPHIC REFERENCE FRAME
   V INV                    ROTATION MATRICES                   TRANSLATORS
   1   1  1.00  0.00  0.00  0.00  1.00  0.00  0.00  0.00  1.00  0.00  0.00  0.00
   2   2  0.00  1.00  0.00  1.00  0.00  0.00  0.00  0.00  1.00  0.00  0.00  0.00

 DIRECT LATTICE VECTORS CARTESIAN COMPONENTS (ANGSTROM)
          X                    Y                    Z
   0.785570000000E+01   0.000000000000E+00   0.000000000000E+00
   0.000000000000E+00   0.785570000000E+01   0.000000000000E+00
   0.000000000000E+00   0.000000000000E+00   0.343380000000E+01


 CARTESIAN COORDINATES - PRIMITIVE CELL
 *******************************************************************************
 *      ATOM          X(ANGSTROM)         Y(ANGSTROM)         Z(ANGSTROM)
 *******************************************************************************
    1   238 SR    0.000000000000E+00  0.000000000000E+00  1.716900000000E+00
    2   238 SR    0.000000000000E+00  3.927850000000E+00  1.716900000000E+00
    3   238 SR    3.927850000000E+00  0.000000000000E+00  1.716900000000E+00
    4   238 SR    3.927850000000E+00  3.927850000000E+00  1.716900000000E+00
    5   229 CU   -1.963925000000E+00 -1.963925000000E+00  0.000000000000E+00
    6   229 CU   -1.963925000000E+00  1.963925000000E+00  0.000000000000E+00
    7   229 CU    1.963925000000E+00 -1.963925000000E+00  0.000000000000E+00
    8   229 CU    1.963925000000E+00  1.963925000000E+00  0.000000000000E+00
    9   208 O     0.000000000000E+00 -1.963925000000E+00  0.000000000000E+00
   10   208 O     0.000000000000E+00  1.963925000000E+00  0.000000000000E+00
   11   208 O     3.927850000000E+00 -1.963925000000E+00  0.000000000000E+00
   12   208 O     3.927850000000E+00  1.963925000000E+00  0.000000000000E+00
   13   208 O    -1.963925000000E+00  0.000000000000E+00  0.000000000000E+00
   14   208 O    -1.963925000000E+00  3.927850000000E+00  0.000000000000E+00
   15   208 O     1.963925000000E+00  0.000000000000E+00  0.000000000000E+00
   16   208 O     1.963925000000E+00  3.927850000000E+00  0.000000000000E+00

 *******************************************************************************
 *** PSEUDOPOTENTIAL INFORMATION ***
 *******************************************************************************

 ATOMIC NUMBER  29, NUCLEAR CHARGE 19.000, GIVEN IN INPUT       PSEUDOPOTENTIAL
   TYPE       EXPONENT      COEFF.    N      EXPONENT      COEFF.    N
  W0 TMS     6.2514963   19.0000000  -1     6.7272533  118.7784294   1
             6.6102459 -105.8998240   0
  P0 TMS    12.3656871  127.3506942   0
  P1 TMS    11.1607294   71.2298490   0

 ATOMIC NUMBER   8, NUCLEAR CHARGE  6.000, GIVEN IN INPUT       PSEUDOPOTENTIAL
   TYPE       EXPONENT      COEFF.    N      EXPONENT      COEFF.    N
  W0 TMS     9.2979390    6.0000000  -1     8.8649220   55.7876342   1
             8.6292567  -38.8197850   0
  P0 TMS     8.7192445   38.4191413   0

 ATOMIC NUMBER  38, NUCLEAR CHARGE  2.000, GIVEN IN INPUT       PSEUDOPOTENTIAL
   TYPE       EXPONENT      COEFF.    N      EXPONENT      COEFF.    N
  W0 TMS     4.3839388    2.0000000  -1     3.1964983    8.7678775   1
             0.9899150  -14.2552431   0
  P0 TMS     1.2868349  146.8716052   0
  P1 TMS     0.9567448  140.0262284   0
  P2 TMS     1.9483165   24.4454878   0
 INFORMATION **** CHARGED ****  CHARGED CELL - NO TOTAL ENERGY

 NUCLEAR CHARGE  1.320E+02 CHARGE ON SHELLS  1.330E+02
 WARNING **** INPBAS **** UNIT CELL NOT NEUTRAL

 *******************************************************************************
 LOCAL ATOMIC FUNCTIONS BASIS SET
 *******************************************************************************
   ATOM   X(AU)   Y(AU)   Z(AU)  N. TYPE  EXPONENT  S COEF   P COEF   D/F/G COEF
 *******************************************************************************
   1 SR   0.000   0.000   3.244
                                  1 S  
                                         2.177E-01-9.389E-02 0.000E+00 0.000E+00
                                         4.871E-01-2.476E-01 0.000E+00 0.000E+00
                                         1.090E+00 1.601E-01 0.000E+00 0.000E+00
                                         2.439E+00-4.360E-02 0.000E+00 0.000E+00
                                         5.457E+00 8.684E-03 0.000E+00 0.000E+00
                                         1.221E+01-1.296E-03 0.000E+00 0.000E+00
                           2-     4 P  
                                         2.236E-01 0.000E+00-4.747E-02 0.000E+00
                                         4.507E-01 0.000E+00-1.710E-01 0.000E+00
                                         9.086E-01 0.000E+00 1.048E-01 0.000E+00
                                         1.831E+00 0.000E+00-2.952E-02 0.000E+00
                                         3.692E+00 0.000E+00 6.196E-03 0.000E+00
                                         7.442E+00 0.000E+00-9.550E-04 0.000E+00
                           5-     9 D  
                                         5.283E-01 0.000E+00 0.000E+00 1.000E+00
                                 10 S  
                                         2.000E-01 1.000E+00 0.000E+00 0.000E+00
                                 11 S  
                                         6.000E-01 1.000E+00 0.000E+00 0.000E+00
                          12-    14 P  
                                         2.000E-01 0.000E+00 1.000E+00 0.000E+00
                          15-    17 P  
                                         6.000E-01 0.000E+00 1.000E+00 0.000E+00
   2 SR   0.000   7.423   3.244
   3 SR   7.423   0.000   3.244
   4 SR   7.423   7.423   3.244
   5 CU  -3.711  -3.711   0.000
                                 69 S  
                                         2.785E+01-1.934E-02 0.000E+00 0.000E+00
                                         2.142E+01 8.861E-02 0.000E+00 0.000E+00
                                         1.054E+01-3.559E-01 0.000E+00 0.000E+00
                                         2.536E+00 5.381E-01 0.000E+00 0.000E+00
                                         1.250E+00 5.111E-01 0.000E+00 0.000E+00
                                         5.998E-01 1.476E-01 0.000E+00 0.000E+00
                                 70 S  
                                         2.785E+01-2.653E-03 0.000E+00 0.000E+00
                                         2.142E+01-7.542E-03 0.000E+00 0.000E+00
                                         1.054E+01 7.976E-02 0.000E+00 0.000E+00
                                         2.536E+00-1.553E-01 0.000E+00 0.000E+00
                                         1.250E+00-2.531E-01 0.000E+00 0.000E+00
                                         5.998E-01-2.817E-02 0.000E+00 0.000E+00
                          71-    73 P  
                                         1.859E+01 0.000E+00 3.652E-03 0.000E+00
                                         1.430E+01 0.000E+00-3.708E-02 0.000E+00
                                         5.631E+00 0.000E+00 2.171E-01 0.000E+00
                                         2.683E+00 0.000E+00 4.410E-01 0.000E+00
                                         1.259E+00 0.000E+00 3.587E-01 0.000E+00
                                         5.741E-01 0.000E+00 1.148E-01 0.000E+00
                                         2.092E-01 0.000E+00 7.316E-03 0.000E+00
                          74-    78 D  
                                         1.579E+01 0.000E+00 0.000E+00 8.422E-02
                                         7.203E+00 0.000E+00 0.000E+00 2.554E-01
                                         2.974E+00 0.000E+00 0.000E+00 3.500E-01
                                         1.207E+00 0.000E+00 0.000E+00 3.417E-01
                                         4.640E-01 0.000E+00 0.000E+00 2.417E-01
                          79-    85 F  
                                         1.692E+00 0.000E+00 0.000E+00 1.000E+00
                                 86 S  
                                         2.000E-01 1.000E+00 0.000E+00 0.000E+00
                                 87 S  
                                         6.000E-01 1.000E+00 0.000E+00 0.000E+00
                          88-    90 P  
                                         2.000E-01 0.000E+00 1.000E+00 0.000E+00
                          91-    93 P  
                                         6.000E-01 0.000E+00 1.000E+00 0.000E+00
                          94-    98 D  
                                         2.000E-01 0.000E+00 0.000E+00 1.000E+00
                          99-   103 D  
                                         6.000E-01 0.000E+00 0.000E+00 1.000E+00
   6 CU  -3.711   3.711   0.000
   7 CU   3.711  -3.711   0.000
   8 CU   3.711   3.711   0.000
   9 O    0.000  -3.711   0.000
                                209 S  
                                         2.680E-01 3.048E-01 0.000E+00 0.000E+00
                                         5.731E-01 4.538E-01 0.000E+00 0.000E+00
                                         1.225E+00 2.959E-01 0.000E+00 0.000E+00
                                         2.620E+00 1.957E-02 0.000E+00 0.000E+00
                                         5.603E+00-1.286E-01 0.000E+00 0.000E+00
                                         1.198E+01 1.202E-02 0.000E+00 0.000E+00
                                         2.562E+01 4.070E-04 0.000E+00 0.000E+00
                                         5.478E+01-7.600E-05 0.000E+00 0.000E+00
                         210-   212 P  
                                         3.337E-01 0.000E+00 2.560E-01 0.000E+00
                                         6.666E-01 0.000E+00 2.819E-01 0.000E+00
                                         1.332E+00 0.000E+00 2.428E-01 0.000E+00
                                         2.661E+00 0.000E+00 1.611E-01 0.000E+00
                                         5.316E+00 0.000E+00 8.231E-02 0.000E+00
                                         1.062E+01 0.000E+00 3.990E-02 0.000E+00
                                         2.122E+01 0.000E+00 4.679E-03 0.000E+00
                         213-   217 D  
                                         6.693E-01 0.000E+00 0.000E+00 1.000E+00
                         218-   224 F  
                                         1.423E+00 0.000E+00 0.000E+00 1.000E+00
                                225 S  
                                         2.000E-01 1.000E+00 0.000E+00 0.000E+00
                                226 S  
                                         6.000E-01 1.000E+00 0.000E+00 0.000E+00
                         227-   229 P  
                                         2.000E-01 0.000E+00 1.000E+00 0.000E+00
                         230-   232 P  
                                         6.000E-01 0.000E+00 1.000E+00 0.000E+00
  10 O    0.000   3.711   0.000
  11 O    7.423  -3.711   0.000
  12 O    7.423   3.711   0.000
  13 O   -3.711   0.000   0.000
  14 O   -3.711   7.423   0.000
  15 O    3.711   0.000   0.000
  16 O    3.711   7.423   0.000
 INFORMATION **** SET_MPP **** PCRYSTAL CALCULATION
 INFORMATION **** READM2 **** NEW DEFAULT: FOCK/KS MATRIX MIXING SET TO 30 %
 INFORMATION **** READM2 **** NEW DEFAULT: FULL DIRECT SCF MODE
 INFORMATION **** READM2 **** NEW DEFAULT: COULOMB BIPOLAR BUFFER SET TO 32 Mb
 INFORMATION **** READM2 **** NEW DEFAULT: EXCHANGE BIPOLAR BUFFER SET TO 32 Mb

 *******************************************************************************
 NEW DEFAULT: DFT INTEGRATION GRID INCREASED TO XLGRID
 NEW DEFAULT: DIIS ACCELERATOR ACTIVE
 USE KEYWORD NODIIS TO TURN IT OFF
 *******************************************************************************

 INFORMATION **** READM2 **** FULL DIRECT SCF (MONO AND BIEL INT) SELECTED
 INFORMATION **** BIPOSIZE **** COULOMB BIPOLAR BUFFER SET TO   100000000
 INFORMATION **** EXCHSIZE **** EXCHANGE BIPOLAR BUFFER SIZE SET TO    10000000
 INFORMATION **** TOLDEE **** SCF TOL ON TOTAL ENERGY SET TO          10
 INFORMATION **** TOLINTEG **** COULOMB AND EXCHANGE SERIES TOLERANCES MODIFIED
 INFORMATION **** MAXCYCLE **** MAX NUMBER OF SCF CYCLES SET TO         200
 INFORMATION **** SMEAR **** FERMI SMEARING ACTIVE
 FERMI SMEARING - TEMPERATURE SMEARING OF FERMI SURFACE  0.1000E-12
 INFORMATION **** SAVEWF **** not fully tested
 INFORMATION **** SPINLOCK **** LOCK IN A GIVEN SPIN STATE
 ALPHA-BETA ELECTRONS LOCKED TO   3 FOR 200 SCF CYCLES
 SSSSSSSSSSSSSSSSSSSSSSSSSSSSSSSSSSSSSSSSSSSSSSSSSSSSSSSSSSSSSSSSSSSSSSSSSSSSSS
 ATOMIC SPINS SET TO (ATOM, AT. N., SPIN)
   1 238 0   2 238 0   3 238 0   4 238 0   5 229-1   6 229 1   7 229 1   8 229 1
   9 208 0  10 208 0  11 208 0  12 208 0  13 208 0  14 208 0  15 208 0  16 208 0
 *******************************************************************************
 N. OF ATOMS PER CELL        16  COULOMB OVERLAP TOL         (T1) 10**   -8
 NUMBER OF SHELLS           136  COULOMB PENETRATION TOL     (T2) 10**   -8
 NUMBER OF AO               400  EXCHANGE OVERLAP TOL        (T3) 10**   -8
 N. OF ELECTRONS PER CELL   133  EXCHANGE PSEUDO OVP (F(G))  (T4) 10**   -8
 CORE ELECTRONS PER CELL      0  EXCHANGE PSEUDO OVP (P(G))  (T5) 10**  -16
 N. OF SYMMETRY OPERATORS     2  POLE ORDER IN MONO ZONE                  4
 *******************************************************************************
 TYPE OF CALCULATION :  UNRESTRICTED OPEN SHELL
 KOHN-SHAM HAMILTONIAN

 (EXCHANGE)[CORRELATION] FUNCTIONAL:(PERDEW-BURKE-ERNZERHOF)[PERDEW-BURKE-ERNZERHOF]


 HYBRID EXCHANGE - PERCENTAGE OF FOCK EXCHANGE    25.0000

 SPIN POLARIZED DFT SELECTED
 CORE  PSEUDO POTENTIAL         TOL. ON PSEUDO              (TP) 10**- 6
 SPIN POLARIZATION - ALPHA-BETA =  3 FOR 200 CYCLES

 CAPPA:IS1  6;IS2  6;IS3  4; K PTS MONK NET  47; SYMMOPS:K SPACE   4;G SPACE   2

 *******************************************************************************
 MAX NUMBER OF SCF CYCLES     200  CONVERGENCE ON DELTAP        10**-20
 WEIGHT OF F(I) IN F(I+1)      90% CONVERGENCE ON ENERGY        10**-10
 SPIN POLARIZATION - ALPHA-BETA =  3 FOR 200 CYCLES
 SHRINK. FACT.(MONKH.)    6  6  4  NUMBER OF K POINTS IN THE IBZ     47
 SHRINKING FACTOR(GILAT NET)   12  NUMBER OF K POINTS(GILAT NET)    320
 *******************************************************************************
 *** K POINTS COORDINATES (OBLIQUE COORDINATES IN UNITS OF IS =  6)
   1-R(  0  0  0)   2-C(  1  0  0)   3-C(  2  0  0)   4-R(  3  0  0)
   5-C(  1  1  0)   6-C(  2  1  0)   7-C(  3  1  0)   8-C(  4  1  0)
   9-C(  5  1  0)  10-C(  2  2  0)  11-C(  3  2  0)  12-C(  4  2  0)
  13-R(  3  3  0)  14-C(  0  0  1)  15-C(  1  0  1)  16-C(  2  0  1)
  17-C(  3  0  1)  18-C(  4  0  1)  19-C(  5  0  1)  20-C(  1  1  1)
  21-C(  2  1  1)  22-C(  3  1  1)  23-C(  4  1  1)  24-C(  5  1  1)
  25-C(  2  2  1)  26-C(  3  2  1)  27-C(  4  2  1)  28-C(  5  2  1)
  29-C(  3  3  1)  30-C(  4  3  1)  31-C(  5  3  1)  32-C(  4  4  1)
  33-C(  5  4  1)  34-C(  5  5  1)  35-R(  0  0  2)  36-C(  1  0  2)
  37-C(  2  0  2)  38-R(  3  0  2)  39-C(  1  1  2)  40-C(  2  1  2)
  41-C(  3  1  2)  42-C(  4  1  2)  43-C(  5  1  2)  44-C(  2  2  2)
  45-C(  3  2  2)  46-C(  4  2  2)  47-R(  3  3  2)

 DIRECT LATTICE VECTORS COMPON. (A.U.)     RECIP. LATTICE VECTORS COMPON. (A.U.) 
        X            Y            Z              X            Y            Z
   14.8451216    0.0000000    0.0000000      0.4232492    0.0000000    0.0000000
    0.0000000   14.8451216    0.0000000      0.0000000    0.4232492    0.0000000
    0.0000000    0.0000000    6.4889416      0.0000000    0.0000000    0.9682912

 DISK SPACE FOR EIGENVECTORS (FTN 10)    14080000 REALS

 SYMMETRY ADAPTION OF THE BLOCH FUNCTIONS ENABLED
 TTTTTTTTTTTTTTTTTTTTTTTTTTTTTT gordsh1     TELAPSE        2.01 TCPU        0.02

 MATRIX SIZE: P(G) 1263000, F(G)  225436, P(G) IRR  332953, F(G) IRR  120992
 MAX G-VECTOR INDEX FOR 1- AND 2-ELECTRON INTEGRALS 103

 TTTTTTTTTTTTTTTTTTTTTTTTTTTTTT INPUT       TELAPSE        2.04 TCPU        0.05

 NEIGHBORS OF THE NON-EQUIVALENT ATOMS

 N = NUMBER OF NEIGHBORS AT DISTANCE R
    ATOM  N     R/ANG      R/AU   NEIGHBORS (ATOM LABELS AND CELL INDICES)
   1 SR   8     2.6086     4.9295    9 O    0 0 0    9 O    0 0 1   10 O    0 0 0
                                    10 O    0 0 1   13 O    0 0 0   13 O    0 0 1
                                    15 O    0 0 0   15 O    0 0 1
   1 SR   8     3.2652     6.1704    5 CU   0 0 0    5 CU   0 0 1    6 CU   0 0 0
                                     6 CU   0 0 1    7 CU   0 0 0    7 CU   0 0 1
                                     8 CU   0 0 0    8 CU   0 0 1
   1 SR   2     3.4338     6.4889    1 SR   0 0-1    1 SR   0 0 1
   1 SR   4     3.9278     7.4226    2 SR   0 0 0    2 SR   0-1 0    3 SR   0 0 0
                                     3 SR  -1 0 0
   1 SR  16     4.7152     8.9104   11 O    0 0 0   11 O    0 0 1   11 O   -1 0 0
                                    11 O   -1 0 1   12 O    0 0 0   12 O    0 0 1
                                    12 O   -1 0 0   12 O   -1 0 1   14 O    0 0 0
                                    14 O    0 0 1   14 O    0-1 0   14 O    0-1 1
                                    16 O    0 0 0   16 O    0 0 1   16 O    0-1 0
                                    16 O    0-1 1
   1 SR   8     5.2172     9.8590    2 SR   0 0 1    2 SR   0 0-1    2 SR   0-1-1
                                     2 SR   0-1 1    3 SR   0 0 1    3 SR   0 0-1
                                     3 SR  -1 0-1    3 SR  -1 0 1

   2 SR   8     2.6086     4.9295    9 O    0 1 0    9 O    0 1 1   10 O    0 0 0
                                    10 O    0 0 1   14 O    0 0 0   14 O    0 0 1
                                    16 O    0 0 0   16 O    0 0 1
   2 SR   8     3.2652     6.1704    5 CU   0 1 0    5 CU   0 1 1    6 CU   0 0 0
                                     6 CU   0 0 1    7 CU   0 1 0    7 CU   0 1 1
                                     8 CU   0 0 0    8 CU   0 0 1
   2 SR   2     3.4338     6.4889    2 SR   0 0-1    2 SR   0 0 1
   2 SR   4     3.9278     7.4226    1 SR   0 0 0    1 SR   0 1 0    4 SR   0 0 0
                                     4 SR  -1 0 0
   2 SR  16     4.7152     8.9104   11 O    0 1 0   11 O    0 1 1   11 O   -1 1 0
                                    11 O   -1 1 1   12 O    0 0 0   12 O    0 0 1
                                    12 O   -1 0 0   12 O   -1 0 1   13 O    0 0 0
                                    13 O    0 0 1   13 O    0 1 0   13 O    0 1 1
                                    15 O    0 0 0   15 O    0 0 1   15 O    0 1 0
                                    15 O    0 1 1
   2 SR   8     5.2172     9.8590    1 SR   0 0-1    1 SR   0 0 1    1 SR   0 1 1
                                     1 SR   0 1-1    4 SR   0 0 1    4 SR   0 0-1
                                     4 SR  -1 0-1    4 SR  -1 0 1

   4 SR   8     2.6086     4.9295   11 O    0 1 0   11 O    0 1 1   12 O    0 0 0
                                    12 O    0 0 1   14 O    1 0 0   14 O    1 0 1
                                    16 O    0 0 0   16 O    0 0 1
   4 SR   8     3.2652     6.1704    5 CU   1 1 0    5 CU   1 1 1    6 CU   1 0 0
                                     6 CU   1 0 1    7 CU   0 1 0    7 CU   0 1 1
                                     8 CU   0 0 0    8 CU   0 0 1
   4 SR   2     3.4338     6.4889    4 SR   0 0-1    4 SR   0 0 1
   4 SR   4     3.9278     7.4226    2 SR   0 0 0    2 SR   1 0 0    3 SR   0 0 0
                                     3 SR   0 1 0
   4 SR  16     4.7152     8.9104    9 O    0 1 0    9 O    0 1 1    9 O    1 1 0
                                     9 O    1 1 1   10 O    0 0 0   10 O    0 0 1
                                    10 O    1 0 0   10 O    1 0 1   13 O    1 0 0
                                    13 O    1 0 1   13 O    1 1 0   13 O    1 1 1
                                    15 O    0 0 0   15 O    0 0 1   15 O    0 1 0
                                    15 O    0 1 1
   4 SR   8     5.2172     9.8590    2 SR   0 0-1    2 SR   0 0 1    2 SR   1 0 1
                                     2 SR   1 0-1    3 SR   0 0-1    3 SR   0 0 1
                                     3 SR   0 1 1    3 SR   0 1-1

   5 CU   4     1.9639     3.7113    9 O    0 0 0   11 O   -1 0 0   13 O    0 0 0
                                    14 O    0-1 0
   5 CU   8     3.2652     6.1704    1 SR   0 0 0    1 SR   0 0-1    2 SR   0-1 0
                                     2 SR   0-1-1    3 SR  -1 0 0    3 SR  -1 0-1
                                     4 SR  -1-1 0    4 SR  -1-1-1
   5 CU   2     3.4338     6.4889    5 CU   0 0-1    5 CU   0 0 1
   5 CU   4     3.9278     7.4226    6 CU   0 0 0    6 CU   0-1 0    7 CU   0 0 0
                                     7 CU  -1 0 0
   5 CU   8     3.9558     7.4753    9 O    0 0 1    9 O    0 0-1   11 O   -1 0-1
                                    11 O   -1 0 1   13 O    0 0 1   13 O    0 0-1
                                    14 O    0-1-1   14 O    0-1 1
   5 CU   8     4.3915     8.2987   10 O    0 0 0   10 O    0-1 0   12 O   -1 0 0
                                    12 O   -1-1 0   15 O    0 0 0   15 O   -1 0 0
                                    16 O    0-1 0   16 O   -1-1 0

   6 CU   4     1.9639     3.7113   10 O    0 0 0   12 O   -1 0 0   13 O    0 0 0
                                    14 O    0 0 0
   6 CU   8     3.2652     6.1704    1 SR   0 0 0    1 SR   0 0-1    2 SR   0 0 0
                                     2 SR   0 0-1    3 SR  -1 0 0    3 SR  -1 0-1
                                     4 SR  -1 0 0    4 SR  -1 0-1
   6 CU   2     3.4338     6.4889    6 CU   0 0-1    6 CU   0 0 1
   6 CU   4     3.9278     7.4226    5 CU   0 0 0    5 CU   0 1 0    8 CU   0 0 0
                                     8 CU  -1 0 0
   6 CU   8     3.9558     7.4753   10 O    0 0 1   10 O    0 0-1   12 O   -1 0-1
                                    12 O   -1 0 1   13 O    0 0-1   13 O    0 0 1
                                    14 O    0 0 1   14 O    0 0-1
   6 CU   8     4.3915     8.2987    9 O    0 0 0    9 O    0 1 0   11 O   -1 0 0
                                    11 O   -1 1 0   15 O    0 0 0   15 O   -1 0 0
                                    16 O    0 0 0   16 O   -1 0 0

   8 CU   4     1.9639     3.7113   10 O    0 0 0   12 O    0 0 0   15 O    0 0 0
                                    16 O    0 0 0
   8 CU   8     3.2652     6.1704    1 SR   0 0 0    1 SR   0 0-1    2 SR   0 0 0
                                     2 SR   0 0-1    3 SR   0 0 0    3 SR   0 0-1
                                     4 SR   0 0 0    4 SR   0 0-1
   8 CU   2     3.4338     6.4889    8 CU   0 0-1    8 CU   0 0 1
   8 CU   4     3.9278     7.4226    6 CU   0 0 0    6 CU   1 0 0    7 CU   0 0 0
                                     7 CU   0 1 0
   8 CU   8     3.9558     7.4753   10 O    0 0-1   10 O    0 0 1   12 O    0 0 1
                                    12 O    0 0-1   15 O    0 0-1   15 O    0 0 1
                                    16 O    0 0 1   16 O    0 0-1
   8 CU   8     4.3915     8.2987    9 O    0 0 0    9 O    0 1 0   11 O    0 0 0
                                    11 O    0 1 0   13 O    0 0 0   13 O    1 0 0
                                    14 O    0 0 0   14 O    1 0 0

   9 O    2     1.9639     3.7113    5 CU   0 0 0    7 CU   0 0 0
   9 O    4     2.6086     4.9295    1 SR   0 0 0    1 SR   0 0-1    2 SR   0-1 0
                                     2 SR   0-1-1
   9 O    4     2.7774     5.2485   13 O    0 0 0   14 O    0-1 0   15 O    0 0 0
                                    16 O    0-1 0
   9 O    2     3.4338     6.4889    9 O    0 0-1    9 O    0 0 1
   9 O    4     3.9278     7.4226   10 O    0 0 0   10 O    0-1 0   11 O    0 0 0
                                    11 O   -1 0 0
   9 O    4     3.9558     7.4753    5 CU   0 0-1    5 CU   0 0 1    7 CU   0 0 1
                                     7 CU   0 0-1

  10 O    2     1.9639     3.7113    6 CU   0 0 0    8 CU   0 0 0
  10 O    4     2.6086     4.9295    1 SR   0 0 0    1 SR   0 0-1    2 SR   0 0 0
                                     2 SR   0 0-1
  10 O    4     2.7774     5.2485   13 O    0 0 0   14 O    0 0 0   15 O    0 0 0
                                    16 O    0 0 0
  10 O    2     3.4338     6.4889   10 O    0 0-1   10 O    0 0 1
  10 O    4     3.9278     7.4226    9 O    0 0 0    9 O    0 1 0   12 O    0 0 0
                                    12 O   -1 0 0
  10 O    4     3.9558     7.4753    6 CU   0 0-1    6 CU   0 0 1    8 CU   0 0 1
                                     8 CU   0 0-1

  11 O    2     1.9639     3.7113    5 CU   1 0 0    7 CU   0 0 0
  11 O    4     2.6086     4.9295    3 SR   0 0 0    3 SR   0 0-1    4 SR   0-1 0
                                     4 SR   0-1-1
  11 O    4     2.7774     5.2485   13 O    1 0 0   14 O    1-1 0   15 O    0 0 0
                                    16 O    0-1 0
  11 O    2     3.4338     6.4889   11 O    0 0-1   11 O    0 0 1
  11 O    4     3.9278     7.4226    9 O    0 0 0    9 O    1 0 0   12 O    0 0 0
                                    12 O    0-1 0
  11 O    4     3.9558     7.4753    5 CU   1 0 1    5 CU   1 0-1    7 CU   0 0-1
                                     7 CU   0 0 1

  12 O    2     1.9639     3.7113    6 CU   1 0 0    8 CU   0 0 0
  12 O    4     2.6086     4.9295    3 SR   0 0 0    3 SR   0 0-1    4 SR   0 0 0
                                     4 SR   0 0-1
  12 O    4     2.7774     5.2485   13 O    1 0 0   14 O    1 0 0   15 O    0 0 0
                                    16 O    0 0 0
  12 O    2     3.4338     6.4889   12 O    0 0-1   12 O    0 0 1
  12 O    4     3.9278     7.4226   10 O    0 0 0   10 O    1 0 0   11 O    0 0 0
                                    11 O    0 1 0
  12 O    4     3.9558     7.4753    6 CU   1 0 1    6 CU   1 0-1    8 CU   0 0-1
                                     8 CU   0 0 1


 SYMMETRY ALLOWED INTERNAL DEGREE(S) OF FREEDOM:  24
 TTTTTTTTTTTTTTTTTTTTTTTTTTTTTT SYMM        TELAPSE        2.51 TCPU        0.41
 TTTTTTTTTTTTTTTTTTTTTTTTTTTTTT INT_SCREEN  TELAPSE        2.54 TCPU        0.45
 INFORMATION **** EXCBUF **** EXCH. BIPO BUFFER: WORDS USED =     4227210

 DFT PARAMETERS

     ATOM       ELECTRONS   NET CHARGE   R(ANGSTROM)
   1 238  SR      0.0000      2.0000     1.18000000
   5 229  CU     17.2500      1.7500     0.74000000
   9 208  O       8.0000     -2.0000     1.40000000
[golub131:45786] 31 more processes have sent help message help-mpi-btl-openib.txt / no device params found
[golub131:45786] Set MCA parameter "orte_base_help_aggregate" to 0 to see all help / error messages

 SIZE OF GRID=     175820
 TTTTTTTTTTTTTTTTTTTTTTTTTTTTTT MAKE_GRID2  TELAPSE        6.90 TCPU        4.81
 BECKE WEIGHT FUNCTION
 RADSAFE =     2.00
 TOLERANCES - DENSITY:10**- 6; POTENTIAL:10**- 9; GRID WGT:10**-14

 RADIAL INTEGRATION  - INTERVALS (POINTS,UPPER LIMIT):            1( 75,  4.0*R)

 ANGULAR INTEGRATION - INTERVALS (ACCURACY LEVEL [N. POINTS] UPPER LIMIT):
  1(  4[  86]   0.2)  2(  8[ 194]   0.5)  3( 12[ 350]   0.9)  4( 16[ 974]   3.5)
  5( 12[ 350]9999.0)
 TTTTTTTTTTTTTTTTTTTTTTTTTTTTTT INT_CALC    TELAPSE        6.93 TCPU        4.84
 EEEEEEEEEE INT_CALC TERMINATION  DATE 21 01 2018 TIME 12:25:42.4

 *******************************************************************************
 Generated by CrystalWriter                                                      
 CRYSTAL - SCF - TYPE OF CALCULATION :  UNRESTRICTED OPEN SHELL
 *******************************************************************************

 CAPPA:IS1  6;IS2  6;IS3  4; K PTS MONK NET  47; SYMMOPS:K SPACE   4;G SPACE   2

 TTTTTTTTTTTTTTTTTTTTTTTTTTTTTT SDIK        TELAPSE        7.08 TCPU        4.99

 AAAAAAAAAAAAAAAAAAAAAAAAAAAAAAAAAAAAAAAAAAAAAAAAAAAAAAAAAAAAAAAAAAAAAAAAAAAAAAA
         ATOMIC WAVEFUNCTION(S)


 NUCLEAR CHARGE 19.0  SYMMETRY SPECIES            S    P    D
 N. ELECTRONS   17.2  NUMBER OF PRIMITIVE GTOS   14    9    7
                      NUMBER OF CONTRACTED GTOS   4    3    3
                      NUMBER OF CLOSED SHELLS     1    1    0
                      OPEN SHELL OCCUPATION       0    0    9

  ZNUC SCFIT  TOTAL HF ENERGY   KINETIC ENERGY   VIRIAL THEOREM ACCURACY
  19.0  24   -1.953432393E+02  1.248337040E+02 -2.564827712E+00  3.3E-06

 NUCLEAR CHARGE  6.0  SYMMETRY SPECIES            S    P
 N. ELECTRONS    8.0  NUMBER OF PRIMITIVE GTOS   10    9
                      NUMBER OF CONTRACTED GTOS   3    3
                      NUMBER OF CLOSED SHELLS     1    1
                      OPEN SHELL OCCUPATION       0    0

  ZNUC SCFIT  TOTAL HF ENERGY   KINETIC ENERGY   VIRIAL THEOREM ACCURACY
   6.0  43   -1.519668598E+01  1.229882609E+01 -2.235620852E+00  4.1E-06

 AAAAAAAAAAAAAAAAAAAAAAAAAAAAAAAAAAAAAAAAAAAAAAAAAAAAAAAAAAAAAAAAAAAAAAAAAAAAAAA

 CHARGE NORMALIZATION FACTOR   1.00757576
 TOTAL ATOMIC CHARGES:
   0.0000000   0.0000000   0.0000000   0.0000000  17.1287879  17.1287879
  17.1287879  17.1287879   8.0606061   8.0606061   8.0606061   8.0606061
   8.0606061   8.0606061   8.0606061   8.0606061
 SUMMED SPIN DENSITY           2.01515151
 TOTAL ATOMIC SPINS  :
   0.0000000   0.0000000   0.0000000   0.0000000  -1.0075758   1.0075758
   1.0075758   1.0075758   0.0000000   0.0000000   0.0000000   0.0000000
   0.0000000   0.0000000   0.0000000   0.0000000
 TTTTTTTTTTTTTTTTTTTTTTTTTTTTTT MOQGAD      TELAPSE        7.25 TCPU        5.15
 TTTTTTTTTTTTTTTTTTTTTTTTTTTTTT SHELLXN     TELAPSE      133.78 TCPU      130.69
 TTTTTTTTTTTTTTTTTTTTTTTTTTTTTT MONMO3      TELAPSE      139.89 TCPU      136.81
 NUMERICALLY INTEGRATED DENSITY     67.5075961641     65.4924416801
 TTTTTTTTTTTTTTTTTTTTTTTTTTTTTT NUMDFT      TELAPSE      140.73 TCPU      137.65
 CYC   0 ETOT(AU) -9.213354055677E+02 DETOT -9.21E+02 tst  0.00E+00 PX  1.00E+00
 CYCLE  0 WAVE FUNCTION SAVED IN FORTRAN UNIT 79
 TTTTTTTTTTTTTTTTTTTTTTTTTTTTTT DIIS        TELAPSE      141.14 TCPU      137.85
 TTTTTTTTTTTTTTTTTTTTTTTTTTTTTT FDIK        TELAPSE      144.94 TCPU      141.61
 SPIN LOCKING: NO ENERGY GAP COMPUTED
 TTTTTTTTTTTTTTTTTTTTTTTTTTTTTT PDIG        TELAPSE      145.11 TCPU      141.78
 CHARGE NORMALIZATION FACTOR   1.00000000
 TOTAL ATOMIC CHARGES:
   0.1739651   0.1739650   0.1739650   0.1739648  18.5184442  18.0197493
  18.0197493  17.9342993   7.4916753   7.4612994   7.4916747   7.4612995
   7.4916753   7.4916747   7.4612994   7.4612995
 SUMMED SPIN DENSITY           3.00000000
 TOTAL ATOMIC SPINS  :
  -0.0000550  -0.0000550  -0.0000550  -0.0000550   0.0583310   0.6552016
   0.6552016   0.7326139   0.1017582   0.1229599   0.1017582   0.1229597
   0.1017582   0.1017582   0.1229599   0.1229597
 TTTTTTTTTTTTTTTTTTTTTTTTTTTTTT MOQGAD      TELAPSE      145.12 TCPU      141.80
 TTTTTTTTTTTTTTTTTTTTTTTTTTTTTT SHELLXN     TELAPSE      279.62 TCPU      276.25
 TTTTTTTTTTTTTTTTTTTTTTTTTTTTTT MONMO3      TELAPSE      286.61 TCPU      283.23
 NUMERICALLY INTEGRATED DENSITY     67.9998045597     64.9997833848
 TTTTTTTTTTTTTTTTTTTTTTTTTTTTTT NUMDFT      TELAPSE      289.45 TCPU      286.08
 CYC   1 ETOT(AU) -9.206872325410E+02 DETOT  6.48E-01 tst  0.00E+00 PX  1.00E+00
 CYCLE  1 WAVE FUNCTION SAVED IN FORTRAN UNIT 79
 TTTTTTTTTTTTTTTTTTTTTTTTTTTTTT DIIS        TELAPSE      290.06 TCPU      286.53
 DIIS TEST: 0.21167E+01 AT SCF   CYCLE   1 - MIX   90 %
 TTTTTTTTTTTTTTTTTTTTTTTTTTTTTT FDIK        TELAPSE      291.28 TCPU      287.73
 SPIN LOCKING: NO ENERGY GAP COMPUTED
 TTTTTTTTTTTTTTTTTTTTTTTTTTTTTT PDIG        TELAPSE      291.45 TCPU      287.90
 CHARGE NORMALIZATION FACTOR   1.00000000
 TOTAL ATOMIC CHARGES:
   0.1745793   0.1745771   0.1745771   0.1745790  18.3707327  18.1276678
  18.1276678  18.0583520   7.4605158   7.4438020   7.4605141   7.4438017
   7.4605158   7.4605141   7.4438020   7.4438017
 SUMMED SPIN DENSITY           3.00000000
 TOTAL ATOMIC SPINS  :
   0.0004835   0.0004834   0.0004834   0.0004834   0.1440002   0.5792424
   0.5792424   0.6536839   0.1250479   0.1354268   0.1250474   0.1354266
   0.1250479   0.1250474   0.1354268   0.1354266
 TTTTTTTTTTTTTTTTTTTTTTTTTTTTTT MOQGAD      TELAPSE      291.47 TCPU      287.92
 TTTTTTTTTTTTTTTTTTTTTTTTTTTTTT SHELLXN     TELAPSE      425.86 TCPU      422.34
 TTTTTTTTTTTTTTTTTTTTTTTTTTTTTT MONMO3      TELAPSE      432.98 TCPU      429.46
 NUMERICALLY INTEGRATED DENSITY     67.9998075059     64.9997979953
 TTTTTTTTTTTTTTTTTTTTTTTTTTTTTT NUMDFT      TELAPSE      435.81 TCPU      432.29
 CYC   2 ETOT(AU) -9.208379523749E+02 DETOT -1.51E-01 tst  2.62E-03 PX  1.10E-01
 CYCLE  2 WAVE FUNCTION SAVED IN FORTRAN UNIT 79
 TTTTTTTTTTTTTTTTTTTTTTTTTTTTTT DIIS        TELAPSE      436.44 TCPU      432.73
 DIIS TEST: 0.57860E+00 AT SCF   CYCLE   2 - DIIS ACTIVE - HISTORY:     2 CYCLES
 TTTTTTTTTTTTTTTTTTTTTTTTTTTTTT FDIK        TELAPSE      437.62 TCPU      433.88
 SPIN LOCKING: NO ENERGY GAP COMPUTED
 TTTTTTTTTTTTTTTTTTTTTTTTTTTTTT PDIG        TELAPSE      437.79 TCPU      434.05
 CHARGE NORMALIZATION FACTOR   1.00000000
 TOTAL ATOMIC CHARGES:
   0.1832172   0.1832285   0.1832285   0.1832169  18.4179430  18.0073522
  18.0073522  18.0601398   7.4884847   7.4550976   7.4884829   7.4550957
   7.4884847   7.4884829   7.4550976   7.4550957
 SUMMED SPIN DENSITY           3.00000000
 TOTAL ATOMIC SPINS  :
  -0.0015888  -0.0016175  -0.0016175  -0.0015889   0.1298779   0.5780966
   0.5780966   0.6294458   0.1202754   0.1524483   0.1202763   0.1524479
   0.1202754   0.1202763   0.1524483   0.1524479
 TTTTTTTTTTTTTTTTTTTTTTTTTTTTTT MOQGAD      TELAPSE      437.80 TCPU      434.07
 TTTTTTTTTTTTTTTTTTTTTTTTTTTTTT SHELLXN     TELAPSE      572.20 TCPU      568.48
 TTTTTTTTTTTTTTTTTTTTTTTTTTTTTT MONMO3      TELAPSE      579.12 TCPU      575.40
 NUMERICALLY INTEGRATED DENSITY     67.9998153000     64.9997982975
 TTTTTTTTTTTTTTTTTTTTTTTTTTTTTT NUMDFT      TELAPSE      581.93 TCPU      578.21
 CYC   3 ETOT(AU) -9.208109527735E+02 DETOT  2.70E-02 tst  2.03E-03 PX  1.74E-01
 CYCLE  3 WAVE FUNCTION SAVED IN FORTRAN UNIT 79
 TTTTTTTTTTTTTTTTTTTTTTTTTTTTTT DIIS        TELAPSE      582.54 TCPU      578.63
 DIIS TEST: 0.95015E+00 AT SCF   CYCLE   3 - DIIS ACTIVE - HISTORY:     3 CYCLES
 TTTTTTTTTTTTTTTTTTTTTTTTTTTTTT FDIK        TELAPSE      583.73 TCPU      579.81
 SPIN LOCKING: NO ENERGY GAP COMPUTED
 TTTTTTTTTTTTTTTTTTTTTTTTTTTTTT PDIG        TELAPSE      583.90 TCPU      579.98
 CHARGE NORMALIZATION FACTOR   1.00000000
 TOTAL ATOMIC CHARGES:
   0.1854884   0.1854691   0.1854691   0.1854882  18.0282128  18.1061299
  18.1061299  18.0698856   7.4979880   7.4889463   7.4979844   7.4889448
   7.4979880   7.4979844   7.4889463   7.4889448
 SUMMED SPIN DENSITY           3.00000000
 TOTAL ATOMIC SPINS  :
  -0.0018193  -0.0018184  -0.0018184  -0.0018196   0.3705862   0.5104468
   0.5104468   0.5940115   0.1228124   0.1326339   0.1228121   0.1326338
   0.1228124   0.1228121   0.1326339   0.1326338
 TTTTTTTTTTTTTTTTTTTTTTTTTTTTTT MOQGAD      TELAPSE      583.92 TCPU      580.00
 TTTTTTTTTTTTTTTTTTTTTTTTTTTTTT SHELLXN     TELAPSE      719.39 TCPU      714.21
 TTTTTTTTTTTTTTTTTTTTTTTTTTTTTT MONMO3      TELAPSE      726.24 TCPU      721.07
 NUMERICALLY INTEGRATED DENSITY     67.9997920540     64.9997772399
 TTTTTTTTTTTTTTTTTTTTTTTTTTTTTT NUMDFT      TELAPSE      729.06 TCPU      723.89
 CYC   4 ETOT(AU) -9.208981991949E+02 DETOT -8.72E-02 tst  4.99E-03 PX  3.56E-01
 CYCLE  4 WAVE FUNCTION SAVED IN FORTRAN UNIT 79
 TTTTTTTTTTTTTTTTTTTTTTTTTTTTTT DIIS        TELAPSE      729.70 TCPU      724.32
 DIIS TEST: 0.14008E+00 AT SCF   CYCLE   4 - DIIS ACTIVE - HISTORY:     4 CYCLES
 TTTTTTTTTTTTTTTTTTTTTTTTTTTTTT FDIK        TELAPSE      730.96 TCPU      725.57
 SPIN LOCKING: NO ENERGY GAP COMPUTED
 TTTTTTTTTTTTTTTTTTTTTTTTTTTTTT PDIG        TELAPSE      731.13 TCPU      725.74
 CHARGE NORMALIZATION FACTOR   1.00000000
 TOTAL ATOMIC CHARGES:
   0.1866261   0.1866314   0.1866314   0.1866256  18.1575054  18.1170145
  18.1170145  18.0739808   7.4787283   7.4682660   7.4787254   7.4682654
   7.4787283   7.4787254   7.4682660   7.4682654
 SUMMED SPIN DENSITY           3.00000000
 TOTAL ATOMIC SPINS  :
  -0.0022310  -0.0022293  -0.0022293  -0.0022310   0.3325408   0.5159083
   0.5159083   0.6087009   0.1225743   0.1363915   0.1225745   0.1363909
   0.1225743   0.1225745   0.1363915   0.1363909
 TTTTTTTTTTTTTTTTTTTTTTTTTTTTTT MOQGAD      TELAPSE      731.15 TCPU      725.75
 TTTTTTTTTTTTTTTTTTTTTTTTTTTTTT SHELLXN     TELAPSE      865.58 TCPU      860.15
 TTTTTTTTTTTTTTTTTTTTTTTTTTTTTT MONMO3      TELAPSE      872.61 TCPU      867.18
 NUMERICALLY INTEGRATED DENSITY     67.9997973447     64.9997771661
 TTTTTTTTTTTTTTTTTTTTTTTTTTTTTT NUMDFT      TELAPSE      875.46 TCPU      870.03
 CYC   5 ETOT(AU) -9.209107550036E+02 DETOT -1.26E-02 tst  2.36E-04 PX  5.80E-02
 CYCLE  5 WAVE FUNCTION SAVED IN FORTRAN UNIT 79
 TTTTTTTTTTTTTTTTTTTTTTTTTTTTTT DIIS        TELAPSE      876.11 TCPU      870.47
 DIIS TEST: 0.99944E-02 AT SCF   CYCLE   5 - DIIS ACTIVE - HISTORY:     5 CYCLES
 TTTTTTTTTTTTTTTTTTTTTTTTTTTTTT FDIK        TELAPSE      877.36 TCPU      871.69
 SPIN LOCKING: NO ENERGY GAP COMPUTED
 TTTTTTTTTTTTTTTTTTTTTTTTTTTTTT PDIG        TELAPSE      877.53 TCPU      871.86
 CHARGE NORMALIZATION FACTOR   1.00000000
 TOTAL ATOMIC CHARGES:
   0.1843726   0.1843725   0.1843725   0.1843722  18.1205253  18.1059674
  18.1059674  18.1126737   7.4831880   7.4711568   7.4831865   7.4711568
   7.4831880   7.4831865   7.4711568   7.4711568
 SUMMED SPIN DENSITY           3.00000000
 TOTAL ATOMIC SPINS  :
  -0.0024067  -0.0024053  -0.0024053  -0.0024066   0.3655896   0.5183430
   0.5183430   0.5848180   0.1218187   0.1338128   0.1218200   0.1338137
   0.1218187   0.1218200   0.1338128   0.1338137
 TTTTTTTTTTTTTTTTTTTTTTTTTTTTTT MOQGAD      TELAPSE      877.54 TCPU      871.87
 TTTTTTTTTTTTTTTTTTTTTTTTTTTTTT SHELLXN     TELAPSE     1012.25 TCPU     1006.14
 TTTTTTTTTTTTTTTTTTTTTTTTTTTTTT MONMO3      TELAPSE     1019.02 TCPU     1012.90
 NUMERICALLY INTEGRATED DENSITY     67.9998015586     64.9997787908
 TTTTTTTTTTTTTTTTTTTTTTTTTTTTTT NUMDFT      TELAPSE     1021.81 TCPU     1015.69
 CYC   6 ETOT(AU) -9.209105210091E+02 DETOT  2.34E-04 tst  1.91E-04 PX  4.16E-02
 CYCLE  6 WAVE FUNCTION SAVED IN FORTRAN UNIT 79
 TTTTTTTTTTTTTTTTTTTTTTTTTTTTTT DIIS        TELAPSE     1022.38 TCPU     1016.02
 DIIS TEST: 0.15692E-01 AT SCF   CYCLE   6 - DIIS ACTIVE - HISTORY:     6 CYCLES
 TTTTTTTTTTTTTTTTTTTTTTTTTTTTTT FDIK        TELAPSE     1023.58 TCPU     1017.21
 SPIN LOCKING: NO ENERGY GAP COMPUTED
 TTTTTTTTTTTTTTTTTTTTTTTTTTTTTT PDIG        TELAPSE     1023.75 TCPU     1017.38
 CHARGE NORMALIZATION FACTOR   1.00000000
 TOTAL ATOMIC CHARGES:
   0.1847768   0.1847762   0.1847762   0.1847765  18.1366427  18.1194777
  18.1194777  18.0711539   7.4818555   7.4716805   7.4818541   7.4716810
   7.4818555   7.4818541   7.4716805   7.4716810
 SUMMED SPIN DENSITY           3.00000000
 TOTAL ATOMIC SPINS  :
  -0.0025086  -0.0025090  -0.0025090  -0.0025085   0.3570477   0.5105649
   0.5105649   0.6113101   0.1221077   0.1330284   0.1221085   0.1330290
   0.1221077   0.1221085   0.1330284   0.1330290
 TTTTTTTTTTTTTTTTTTTTTTTTTTTTTT MOQGAD      TELAPSE     1023.77 TCPU     1017.40
 TTTTTTTTTTTTTTTTTTTTTTTTTTTTTT SHELLXN     TELAPSE     1158.10 TCPU     1151.75
 TTTTTTTTTTTTTTTTTTTTTTTTTTTTTT MONMO3      TELAPSE     1165.20 TCPU     1158.85
 NUMERICALLY INTEGRATED DENSITY     67.9998026174     64.9997784384
 TTTTTTTTTTTTTTTTTTTTTTTTTTTTTT NUMDFT      TELAPSE     1168.00 TCPU     1161.65
 CYC   7 ETOT(AU) -9.209114493766E+02 DETOT -9.28E-04 tst  7.89E-05 PX  3.00E-02
 CYCLE  7 WAVE FUNCTION SAVED IN FORTRAN UNIT 79
 TTTTTTTTTTTTTTTTTTTTTTTTTTTTTT DIIS        TELAPSE     1168.72 TCPU     1162.07
 DIIS TEST: 0.67041E-02 AT SCF   CYCLE   7 - DIIS ACTIVE - HISTORY:     7 CYCLES
 TTTTTTTTTTTTTTTTTTTTTTTTTTTTTT FDIK        TELAPSE     1169.98 TCPU     1163.30
 SPIN LOCKING: NO ENERGY GAP COMPUTED
 TTTTTTTTTTTTTTTTTTTTTTTTTTTTTT PDIG        TELAPSE     1170.15 TCPU     1163.47
 CHARGE NORMALIZATION FACTOR   1.00000000
 TOTAL ATOMIC CHARGES:
   0.1855814   0.1855796   0.1855796   0.1855811  18.1335807  18.1106212
  18.1106212  18.0927526   7.4816840   7.4708422   7.4816830   7.4708421
   7.4816840   7.4816830   7.4708422   7.4708421
 SUMMED SPIN DENSITY           3.00000000
 TOTAL ATOMIC SPINS  :
  -0.0026008  -0.0026013  -0.0026013  -0.0026008   0.3680537   0.5134798
   0.5134798   0.5966485   0.1220557   0.1326293   0.1220567   0.1326294
   0.1220557   0.1220567   0.1326293   0.1326294
 TTTTTTTTTTTTTTTTTTTTTTTTTTTTTT MOQGAD      TELAPSE     1170.17 TCPU     1163.48
 TTTTTTTTTTTTTTTTTTTTTTTTTTTTTT SHELLXN     TELAPSE     1304.50 TCPU     1297.79
 TTTTTTTTTTTTTTTTTTTTTTTTTTTTTT MONMO3      TELAPSE     1311.31 TCPU     1304.61
 NUMERICALLY INTEGRATED DENSITY     67.9998024819     64.9997770257
 TTTTTTTTTTTTTTTTTTTTTTTTTTTTTT NUMDFT      TELAPSE     1314.14 TCPU     1307.44
 CYC   8 ETOT(AU) -9.209118333995E+02 DETOT -3.84E-04 tst  3.98E-05 PX  1.61E-02
 CYCLE  8 WAVE FUNCTION SAVED IN FORTRAN UNIT 79
 TTTTTTTTTTTTTTTTTTTTTTTTTTTTTT DIIS        TELAPSE     1314.85 TCPU     1307.86
 DIIS TEST: 0.31900E-02 AT SCF   CYCLE   8 - DIIS ACTIVE - HISTORY:     8 CYCLES
 TTTTTTTTTTTTTTTTTTTTTTTTTTTTTT FDIK        TELAPSE     1316.07 TCPU     1309.04
 SPIN LOCKING: NO ENERGY GAP COMPUTED
 TTTTTTTTTTTTTTTTTTTTTTTTTTTTTT PDIG        TELAPSE     1316.24 TCPU     1309.21
 CHARGE NORMALIZATION FACTOR   1.00000000
 TOTAL ATOMIC CHARGES:
   0.1852637   0.1852640   0.1852640   0.1852634  18.1382047  18.1091529
  18.1091529  18.0879371   7.4820610   7.4715638   7.4820602   7.4715637
   7.4820610   7.4820602   7.4715638   7.4715637
 SUMMED SPIN DENSITY           3.00000000
 TOTAL ATOMIC SPINS  :
  -0.0026521  -0.0026522  -0.0026522  -0.0026521   0.3716811   0.5125071
   0.5125071   0.5970934   0.1220677   0.1321372   0.1220682   0.1321368
   0.1220677   0.1220682   0.1321372   0.1321368
 TTTTTTTTTTTTTTTTTTTTTTTTTTTTTT MOQGAD      TELAPSE     1316.26 TCPU     1309.22
 TTTTTTTTTTTTTTTTTTTTTTTTTTTTTT SHELLXN     TELAPSE     1450.61 TCPU     1443.59
 TTTTTTTTTTTTTTTTTTTTTTTTTTTTTT MONMO3      TELAPSE     1457.52 TCPU     1450.50
 NUMERICALLY INTEGRATED DENSITY     67.9998035108     64.9997772307
 TTTTTTTTTTTTTTTTTTTTTTTTTTTTTT NUMDFT      TELAPSE     1460.36 TCPU     1453.34
 CYC   9 ETOT(AU) -9.209120005391E+02 DETOT -1.67E-04 tst  4.92E-06 PX  6.59E-03
 CYCLE  9 WAVE FUNCTION SAVED IN FORTRAN UNIT 79
 TTTTTTTTTTTTTTTTTTTTTTTTTTTTTT DIIS        TELAPSE     1461.01 TCPU     1453.95
 DIIS TEST: 0.16545E-02 AT SCF   CYCLE   9 - DIIS ACTIVE - HISTORY:     9 CYCLES
 TTTTTTTTTTTTTTTTTTTTTTTTTTTTTT FDIK        TELAPSE     1462.22 TCPU     1455.16
 SPIN LOCKING: NO ENERGY GAP COMPUTED
 TTTTTTTTTTTTTTTTTTTTTTTTTTTTTT PDIG        TELAPSE     1462.39 TCPU     1455.33
 CHARGE NORMALIZATION FACTOR   1.00000000
 TOTAL ATOMIC CHARGES:
   0.1852999   0.1852993   0.1852993   0.1852996  18.1386236  18.1093167
  18.1093167  18.0888128   7.4815708   7.4716127   7.4815699   7.4716125
   7.4815708   7.4815699   7.4716127   7.4716125
 SUMMED SPIN DENSITY           3.00000000
 TOTAL ATOMIC SPINS  :
  -0.0027001  -0.0026989  -0.0026989  -0.0027001   0.3788416   0.5106462
   0.5106462   0.5945245   0.1224267   0.1316083   0.1224270   0.1316078
   0.1224267   0.1224270   0.1316083   0.1316078
 TTTTTTTTTTTTTTTTTTTTTTTTTTTTTT MOQGAD      TELAPSE     1462.41 TCPU     1455.34
 TTTTTTTTTTTTTTTTTTTTTTTTTTTTTT SHELLXN     TELAPSE     1596.82 TCPU     1589.75
 TTTTTTTTTTTTTTTTTTTTTTTTTTTTTT MONMO3      TELAPSE     1603.75 TCPU     1596.69
 NUMERICALLY INTEGRATED DENSITY     67.9998040777     64.9997770002
 TTTTTTTTTTTTTTTTTTTTTTTTTTTTTT NUMDFT      TELAPSE     1606.58 TCPU     1599.51
 CYC  10 ETOT(AU) -9.209121126798E+02 DETOT -1.12E-04 tst  1.08E-05 PX  1.08E-02
 CYCLE 10 WAVE FUNCTION SAVED IN FORTRAN UNIT 79
 TTTTTTTTTTTTTTTTTTTTTTTTTTTTTT DIIS        TELAPSE     1607.15 TCPU     1599.95
 DIIS TEST: 0.70456E-03 AT SCF   CYCLE  10 - DIIS ACTIVE - HISTORY:    10 CYCLES
 TTTTTTTTTTTTTTTTTTTTTTTTTTTTTT FDIK        TELAPSE     1608.35 TCPU     1601.04
 SPIN LOCKING: NO ENERGY GAP COMPUTED
 TTTTTTTTTTTTTTTTTTTTTTTTTTTTTT PDIG        TELAPSE     1608.52 TCPU     1601.21
 CHARGE NORMALIZATION FACTOR   1.00000000
 TOTAL ATOMIC CHARGES:
   0.1852793   0.1852783   0.1852783   0.1852791  18.1412901  18.1086799
  18.1086799  18.0870756   7.4816935   7.4715968   7.4816928   7.4715967
   7.4816935   7.4816928   7.4715968   7.4715967
 SUMMED SPIN DENSITY           3.00000000
 TOTAL ATOMIC SPINS  :
  -0.0027231  -0.0027227  -0.0027227  -0.0027231   0.3837909   0.5090825
   0.5090825   0.5925276   0.1226277   0.1314743   0.1226282   0.1314739
   0.1226277   0.1226282   0.1314743   0.1314739
 TTTTTTTTTTTTTTTTTTTTTTTTTTTTTT MOQGAD      TELAPSE     1608.53 TCPU     1601.23
 TTTTTTTTTTTTTTTTTTTTTTTTTTTTTT SHELLXN     TELAPSE     1742.79 TCPU     1735.51
 TTTTTTTTTTTTTTTTTTTTTTTTTTTTTT MONMO3      TELAPSE     1749.97 TCPU     1742.69
 NUMERICALLY INTEGRATED DENSITY     67.9998044083     64.9997769618
 TTTTTTTTTTTTTTTTTTTTTTTTTTTTTT NUMDFT      TELAPSE     1752.80 TCPU     1745.52
 CYC  11 ETOT(AU) -9.209121718138E+02 DETOT -5.91E-05 tst  5.48E-06 PX  7.44E-03
 CYCLE 11 WAVE FUNCTION SAVED IN FORTRAN UNIT 79
 TTTTTTTTTTTTTTTTTTTTTTTTTTTTTT DIIS        TELAPSE     1753.46 TCPU     1746.11
 DIIS TEST: 0.17371E-03 AT SCF   CYCLE  11 - DIIS ACTIVE - HISTORY:    11 CYCLES
 TTTTTTTTTTTTTTTTTTTTTTTTTTTTTT FDIK        TELAPSE     1754.78 TCPU     1747.41
 SPIN LOCKING: NO ENERGY GAP COMPUTED
 TTTTTTTTTTTTTTTTTTTTTTTTTTTTTT PDIG        TELAPSE     1754.95 TCPU     1747.58
 CHARGE NORMALIZATION FACTOR   1.00000000
 TOTAL ATOMIC CHARGES:
   0.1852596   0.1852597   0.1852597   0.1852593  18.1420025  18.1085112
  18.1085112  18.0866595   7.4813023   7.4720173   7.4813015   7.4720176
   7.4813023   7.4813015   7.4720173   7.4720176
 SUMMED SPIN DENSITY           3.00000000
 TOTAL ATOMIC SPINS  :
  -0.0027293  -0.0027290  -0.0027290  -0.0027292   0.3863365   0.5083287
   0.5083287   0.5911435   0.1228272   0.1313676   0.1228274   0.1313674
   0.1228272   0.1228274   0.1313676   0.1313674
 TTTTTTTTTTTTTTTTTTTTTTTTTTTTTT MOQGAD      TELAPSE     1754.96 TCPU     1747.59
 TTTTTTTTTTTTTTTTTTTTTTTTTTTTTT SHELLXN     TELAPSE     1889.37 TCPU     1882.02
 TTTTTTTTTTTTTTTTTTTTTTTTTTTTTT MONMO3      TELAPSE     1896.25 TCPU     1888.89
 NUMERICALLY INTEGRATED DENSITY     67.9998044846     64.9997769864
 TTTTTTTTTTTTTTTTTTTTTTTTTTTTTT NUMDFT      TELAPSE     1899.07 TCPU     1891.72
 CYC  12 ETOT(AU) -9.209121835917E+02 DETOT -1.18E-05 tst  1.19E-06 PX  3.62E-03
 CYCLE 12 WAVE FUNCTION SAVED IN FORTRAN UNIT 79
 TTTTTTTTTTTTTTTTTTTTTTTTTTTTTT DIIS        TELAPSE     1899.64 TCPU     1892.03
 DIIS TEST: 0.62806E-04 AT SCF   CYCLE  12 - DIIS ACTIVE - HISTORY:    12 CYCLES
 TTTTTTTTTTTTTTTTTTTTTTTTTTTTTT FDIK        TELAPSE     1900.84 TCPU     1893.18
 SPIN LOCKING: NO ENERGY GAP COMPUTED
 TTTTTTTTTTTTTTTTTTTTTTTTTTTTTT PDIG        TELAPSE     1901.01 TCPU     1893.35
 CHARGE NORMALIZATION FACTOR   1.00000000
 TOTAL ATOMIC CHARGES:
   0.1852395   0.1852395   0.1852395   0.1852392  18.1432402  18.1083216
  18.1083216  18.0858575   7.4814365   7.4718891   7.4814356   7.4718894
   7.4814365   7.4814356   7.4718891   7.4718894
 SUMMED SPIN DENSITY           3.00000000
 TOTAL ATOMIC SPINS  :
  -0.0027297  -0.0027294  -0.0027294  -0.0027296   0.3885073   0.5075869
   0.5075869   0.5898145   0.1229142   0.1314415   0.1229143   0.1314413
   0.1229142   0.1229143   0.1314415   0.1314413
 TTTTTTTTTTTTTTTTTTTTTTTTTTTTTT MOQGAD      TELAPSE     1901.02 TCPU     1893.36
 TTTTTTTTTTTTTTTTTTTTTTTTTTTTTT SHELLXN     TELAPSE     2035.31 TCPU     2027.67
 TTTTTTTTTTTTTTTTTTTTTTTTTTTTTT MONMO3      TELAPSE     2042.25 TCPU     2034.61
 NUMERICALLY INTEGRATED DENSITY     67.9998045177     64.9997770422
 TTTTTTTTTTTTTTTTTTTTTTTTTTTTTT NUMDFT      TELAPSE     2045.07 TCPU     2037.43
 CYC  13 ETOT(AU) -9.209121906889E+02 DETOT -7.10E-06 tst  7.86E-07 PX  3.07E-03
 CYCLE 13 WAVE FUNCTION SAVED IN FORTRAN UNIT 79
 TTTTTTTTTTTTTTTTTTTTTTTTTTTTTT DIIS        TELAPSE     2045.69 TCPU     2037.83
 DIIS TEST: 0.25614E-05 AT SCF   CYCLE  13 - DIIS ACTIVE - HISTORY:    13 CYCLES
 TTTTTTTTTTTTTTTTTTTTTTTTTTTTTT FDIK        TELAPSE     2047.09 TCPU     2039.20
 SPIN LOCKING: NO ENERGY GAP COMPUTED
 TTTTTTTTTTTTTTTTTTTTTTTTTTTTTT PDIG        TELAPSE     2047.26 TCPU     2039.37
 CHARGE NORMALIZATION FACTOR   1.00000000
 TOTAL ATOMIC CHARGES:
   0.1852364   0.1852363   0.1852363   0.1852360  18.1431170  18.1083742
  18.1083742  18.0859089   7.4814099   7.4719104   7.4814093   7.4719107
   7.4814099   7.4814093   7.4719104   7.4719107
 SUMMED SPIN DENSITY           3.00000000
 TOTAL ATOMIC SPINS  :
  -0.0027269  -0.0027269  -0.0027269  -0.0027269   0.3885793   0.5075626
   0.5075626   0.5895472   0.1229292   0.1314849   0.1229291   0.1314848
   0.1229292   0.1229291   0.1314849   0.1314848
 TTTTTTTTTTTTTTTTTTTTTTTTTTTTTT MOQGAD      TELAPSE     2047.28 TCPU     2039.39
 TTTTTTTTTTTTTTTTTTTTTTTTTTTTTT SHELLXN     TELAPSE     2181.80 TCPU     2173.93
 TTTTTTTTTTTTTTTTTTTTTTTTTTTTTT MONMO3      TELAPSE     2188.78 TCPU     2180.92
 NUMERICALLY INTEGRATED DENSITY     67.9998044749     64.9997770797
 TTTTTTTTTTTTTTTTTTTTTTTTTTTTTT NUMDFT      TELAPSE     2191.61 TCPU     2183.75
 CYC  14 ETOT(AU) -9.209121907567E+02 DETOT -6.78E-08 tst  1.67E-08 PX  2.95E-04
 CYCLE 14 WAVE FUNCTION SAVED IN FORTRAN UNIT 79
 TTTTTTTTTTTTTTTTTTTTTTTTTTTTTT DIIS        TELAPSE     2192.39 TCPU     2184.44
 DIIS TEST: 0.14500E-05 AT SCF   CYCLE  14 - DIIS ACTIVE - HISTORY:    14 CYCLES
 TTTTTTTTTTTTTTTTTTTTTTTTTTTTTT FDIK        TELAPSE     2193.65 TCPU     2185.61
 SPIN LOCKING: NO ENERGY GAP COMPUTED
 TTTTTTTTTTTTTTTTTTTTTTTTTTTTTT PDIG        TELAPSE     2193.82 TCPU     2185.78
 CHARGE NORMALIZATION FACTOR   1.00000000
 TOTAL ATOMIC CHARGES:
   0.1852317   0.1852316   0.1852316   0.1852314  18.1431529  18.1083809
  18.1083809  18.0858042   7.4814108   7.4719281   7.4814102   7.4719283
   7.4814108   7.4814102   7.4719281   7.4719283
 SUMMED SPIN DENSITY           3.00000000
 TOTAL ATOMIC SPINS  :
  -0.0027268  -0.0027268  -0.0027268  -0.0027268   0.3888848   0.5074874
   0.5074874   0.5892594   0.1229404   0.1315068   0.1229404   0.1315067
   0.1229404   0.1229404   0.1315068   0.1315067
 TTTTTTTTTTTTTTTTTTTTTTTTTTTTTT MOQGAD      TELAPSE     2193.84 TCPU     2185.80
 TTTTTTTTTTTTTTTTTTTTTTTTTTTTTT SHELLXN     TELAPSE     2328.64 TCPU     2320.46
 TTTTTTTTTTTTTTTTTTTTTTTTTTTTTT MONMO3      TELAPSE     2335.08 TCPU     2326.89
 NUMERICALLY INTEGRATED DENSITY     67.9998044651     64.9997771044
 TTTTTTTTTTTTTTTTTTTTTTTTTTTTTT NUMDFT      TELAPSE     2337.88 TCPU     2329.70
 CYC  15 ETOT(AU) -9.209121908769E+02 DETOT -1.20E-07 tst  2.56E-08 PX  3.67E-04
 CYCLE 15 WAVE FUNCTION SAVED IN FORTRAN UNIT 79
 TTTTTTTTTTTTTTTTTTTTTTTTTTTTTT DIIS        TELAPSE     2338.49 TCPU     2330.22
 DIIS TEST: 0.43495E-06 AT SCF   CYCLE  15 - DIIS ACTIVE - HISTORY:    15 CYCLES
 TTTTTTTTTTTTTTTTTTTTTTTTTTTTTT FDIK        TELAPSE     2339.74 TCPU     2331.47
 SPIN LOCKING: NO ENERGY GAP COMPUTED
 TTTTTTTTTTTTTTTTTTTTTTTTTTTTTT PDIG        TELAPSE     2339.91 TCPU     2331.64
 CHARGE NORMALIZATION FACTOR   1.00000000
 TOTAL ATOMIC CHARGES:
   0.1852307   0.1852306   0.1852306   0.1852303  18.1432131  18.1083620
  18.1083620  18.0857723   7.4814127   7.4719295   7.4814122   7.4719298
   7.4814127   7.4814122   7.4719295   7.4719298
 SUMMED SPIN DENSITY           3.00000000
 TOTAL ATOMIC SPINS  :
  -0.0027275  -0.0027274  -0.0027274  -0.0027275   0.3890538   0.5074533
   0.5074533   0.5891161   0.1229442   0.1315143   0.1229441   0.1315142
   0.1229442   0.1229441   0.1315143   0.1315142
 TTTTTTTTTTTTTTTTTTTTTTTTTTTTTT MOQGAD      TELAPSE     2339.93 TCPU     2331.66
 TTTTTTTTTTTTTTTTTTTTTTTTTTTTTT SHELLXN     TELAPSE     2474.41 TCPU     2466.16
 TTTTTTTTTTTTTTTTTTTTTTTTTTTTTT MONMO3      TELAPSE     2481.29 TCPU     2473.04
 NUMERICALLY INTEGRATED DENSITY     67.9998044651     64.9997771129
 TTTTTTTTTTTTTTTTTTTTTTTTTTTTTT NUMDFT      TELAPSE     2484.10 TCPU     2475.85
 CYC  16 ETOT(AU) -9.209121909180E+02 DETOT -4.11E-08 tst  7.50E-09 PX  2.18E-04
 CYCLE 16 WAVE FUNCTION SAVED IN FORTRAN UNIT 79
 TTTTTTTTTTTTTTTTTTTTTTTTTTTTTT DIIS        TELAPSE     2484.72 TCPU     2476.30
 DIIS TEST: 0.73145E-07 AT SCF   CYCLE  16 - DIIS ACTIVE - HISTORY:    16 CYCLES
 TTTTTTTTTTTTTTTTTTTTTTTTTTTTTT FDIK        TELAPSE     2486.02 TCPU     2477.59
 SPIN LOCKING: NO ENERGY GAP COMPUTED
 TTTTTTTTTTTTTTTTTTTTTTTTTTTTTT PDIG        TELAPSE     2486.19 TCPU     2477.76
 CHARGE NORMALIZATION FACTOR   1.00000000
 TOTAL ATOMIC CHARGES:
   0.1852305   0.1852304   0.1852304   0.1852301  18.1432266  18.1083718
  18.1083718  18.0857340   7.4814131   7.4719307   7.4814125   7.4719309
   7.4814131   7.4814125   7.4719307   7.4719309
 SUMMED SPIN DENSITY           3.00000000
 TOTAL ATOMIC SPINS  :
  -0.0027278  -0.0027278  -0.0027278  -0.0027278   0.3891244   0.5074449
   0.5074449   0.5890431   0.1229439   0.1315196   0.1229439   0.1315194
   0.1229439   0.1229439   0.1315196   0.1315194
 TTTTTTTTTTTTTTTTTTTTTTTTTTTTTT MOQGAD      TELAPSE     2486.20 TCPU     2477.78
 TTTTTTTTTTTTTTTTTTTTTTTTTTTTTT SHELLXN     TELAPSE     2621.23 TCPU     2612.42
 TTTTTTTTTTTTTTTTTTTTTTTTTTTTTT MONMO3      TELAPSE     2627.47 TCPU     2618.66
 NUMERICALLY INTEGRATED DENSITY     67.9998044642     64.9997771177
 TTTTTTTTTTTTTTTTTTTTTTTTTTTTTT NUMDFT      TELAPSE     2630.29 TCPU     2621.48
 CYC  17 ETOT(AU) -9.209121909229E+02 DETOT -4.85E-09 tst  1.87E-09 PX  8.62E-05
 CYCLE 17 WAVE FUNCTION SAVED IN FORTRAN UNIT 79
 TTTTTTTTTTTTTTTTTTTTTTTTTTTTTT DIIS        TELAPSE     2630.98 TCPU     2622.02
 DIIS TEST: 0.10311E-07 AT SCF   CYCLE  17 - DIIS ACTIVE - HISTORY:    17 CYCLES
 TTTTTTTTTTTTTTTTTTTTTTTTTTTTTT FDIK        TELAPSE     2632.34 TCPU     2623.38
 SPIN LOCKING: NO ENERGY GAP COMPUTED
 TTTTTTTTTTTTTTTTTTTTTTTTTTTTTT PDIG        TELAPSE     2632.51 TCPU     2623.55
 CHARGE NORMALIZATION FACTOR   1.00000000
 TOTAL ATOMIC CHARGES:
   0.1852303   0.1852302   0.1852302   0.1852299  18.1432283  18.1083727
  18.1083727  18.0857274   7.4814129   7.4719318   7.4814123   7.4719320
   7.4814129   7.4814123   7.4719318   7.4719320
 SUMMED SPIN DENSITY           3.00000000
 TOTAL ATOMIC SPINS  :
  -0.0027280  -0.0027280  -0.0027280  -0.0027280   0.3891487   0.5074465
   0.5074465   0.5890171   0.1229428   0.1315206   0.1229428   0.1315204
   0.1229428   0.1229428   0.1315206   0.1315204
 TTTTTTTTTTTTTTTTTTTTTTTTTTTTTT MOQGAD      TELAPSE     2632.53 TCPU     2623.56
 TTTTTTTTTTTTTTTTTTTTTTTTTTTTTT SHELLXN     TELAPSE     2766.93 TCPU     2757.99
 TTTTTTTTTTTTTTTTTTTTTTTTTTTTTT MONMO3      TELAPSE     2773.78 TCPU     2764.85
 NUMERICALLY INTEGRATED DENSITY     67.9998044651     64.9997771190
 TTTTTTTTTTTTTTTTTTTTTTTTTTTTTT NUMDFT      TELAPSE     2776.58 TCPU     2767.64
 CYC  18 ETOT(AU) -9.209121909217E+02 DETOT  1.16E-09 tst  2.79E-10 PX  3.07E-05
 CYCLE 18 WAVE FUNCTION SAVED IN FORTRAN UNIT 79
 TTTTTTTTTTTTTTTTTTTTTTTTTTTTTT DIIS        TELAPSE     2777.31 TCPU     2768.22
 DIIS TEST: 0.22892E-08 AT SCF   CYCLE  18 - DIIS ACTIVE - HISTORY:    18 CYCLES
 TTTTTTTTTTTTTTTTTTTTTTTTTTTTTT FDIK        TELAPSE     2778.61 TCPU     2769.51
 SPIN LOCKING: NO ENERGY GAP COMPUTED
 TTTTTTTTTTTTTTTTTTTTTTTTTTTTTT PDIG        TELAPSE     2778.79 TCPU     2769.68
 CHARGE NORMALIZATION FACTOR   1.00000000
 TOTAL ATOMIC CHARGES:
   0.1852303   0.1852302   0.1852302   0.1852299  18.1432291  18.1083736
  18.1083736  18.0857227   7.4814129   7.4719324   7.4814123   7.4719327
   7.4814129   7.4814123   7.4719324   7.4719327
 SUMMED SPIN DENSITY           3.00000000
 TOTAL ATOMIC SPINS  :
  -0.0027280  -0.0027280  -0.0027280  -0.0027280   0.3891620   0.5074474
   0.5074474   0.5890036   0.1229421   0.1315209   0.1229421   0.1315207
   0.1229421   0.1229421   0.1315209   0.1315207
 TTTTTTTTTTTTTTTTTTTTTTTTTTTTTT MOQGAD      TELAPSE     2778.80 TCPU     2769.70
 TTTTTTTTTTTTTTTTTTTTTTTTTTTTTT SHELLXN     TELAPSE     2913.29 TCPU     2904.15
 TTTTTTTTTTTTTTTTTTTTTTTTTTTTTT MONMO3      TELAPSE     2920.09 TCPU     2910.95
 NUMERICALLY INTEGRATED DENSITY     67.9998044656     64.9997771193
 TTTTTTTTTTTTTTTTTTTTTTTTTTTTTT NUMDFT      TELAPSE     2922.90 TCPU     2913.76
 CYC  19 ETOT(AU) -9.209121909209E+02 DETOT  7.83E-10 tst  8.11E-11 PX  1.62E-05
 CYCLE 19 WAVE FUNCTION SAVED IN FORTRAN UNIT 79
 TTTTTTTTTTTTTTTTTTTTTTTTTTTTTT DIIS        TELAPSE     2923.43 TCPU     2914.06
 DIIS TEST: 0.43560E-09 AT SCF   CYCLE  19 - DIIS ACTIVE - HISTORY:    19 CYCLES
 TTTTTTTTTTTTTTTTTTTTTTTTTTTTTT FDIK        TELAPSE     2924.79 TCPU     2915.40
 SPIN LOCKING: NO ENERGY GAP COMPUTED
 TTTTTTTTTTTTTTTTTTTTTTTTTTTTTT PDIG        TELAPSE     2924.96 TCPU     2915.57
 CHARGE NORMALIZATION FACTOR   1.00000000
 TOTAL ATOMIC CHARGES:
   0.1852303   0.1852301   0.1852301   0.1852299  18.1432299  18.1083740
  18.1083740  18.0857201   7.4814128   7.4719327   7.4814123   7.4719330
   7.4814128   7.4814123   7.4719327   7.4719330
 SUMMED SPIN DENSITY           3.00000000
 TOTAL ATOMIC SPINS  :
  -0.0027280  -0.0027280  -0.0027280  -0.0027280   0.3891686   0.5074481
   0.5074481   0.5889970   0.1229417   0.1315210   0.1229417   0.1315208
   0.1229417   0.1229417   0.1315210   0.1315208
 TTTTTTTTTTTTTTTTTTTTTTTTTTTTTT MOQGAD      TELAPSE     2924.98 TCPU     2915.59
 TTTTTTTTTTTTTTTTTTTTTTTTTTTTTT SHELLXN     TELAPSE     3059.31 TCPU     3049.93
 TTTTTTTTTTTTTTTTTTTTTTTTTTTTTT MONMO3      TELAPSE     3066.24 TCPU     3056.87
 NUMERICALLY INTEGRATED DENSITY     67.9998044660     64.9997771193
 TTTTTTTTTTTTTTTTTTTTTTTTTTTTTT NUMDFT      TELAPSE     3069.06 TCPU     3059.68
 CYC  20 ETOT(AU) -9.209121909205E+02 DETOT  4.55E-10 tst  2.11E-11 PX  8.05E-06
 CYCLE 20 WAVE FUNCTION SAVED IN FORTRAN UNIT 79
 TTTTTTTTTTTTTTTTTTTTTTTTTTTTTT DIIS        TELAPSE     3069.68 TCPU     3060.11
 DIIS TEST: 0.40051E-10 AT SCF   CYCLE  20 - DIIS ACTIVE - HISTORY:    20 CYCLES
 TTTTTTTTTTTTTTTTTTTTTTTTTTTTTT FDIK        TELAPSE     3070.82 TCPU     3061.19
 SPIN LOCKING: NO ENERGY GAP COMPUTED
 TTTTTTTTTTTTTTTTTTTTTTTTTTTTTT PDIG        TELAPSE     3070.99 TCPU     3061.36
 CHARGE NORMALIZATION FACTOR   1.00000000
 TOTAL ATOMIC CHARGES:
   0.1852303   0.1852301   0.1852301   0.1852299  18.1432299  18.1083742
  18.1083742  18.0857195   7.4814129   7.4719328   7.4814121   7.4719330
   7.4814129   7.4814121   7.4719328   7.4719330
 SUMMED SPIN DENSITY           3.00000000
 TOTAL ATOMIC SPINS  :
  -0.0027280  -0.0027280  -0.0027280  -0.0027280   0.3891705   0.5074484
   0.5074484   0.5889949   0.1229415   0.1315210   0.1229416   0.1315208
   0.1229415   0.1229416   0.1315210   0.1315208
 TTTTTTTTTTTTTTTTTTTTTTTTTTTTTT MOQGAD      TELAPSE     3071.01 TCPU     3061.38
 TTTTTTTTTTTTTTTTTTTTTTTTTTTTTT SHELLXN     TELAPSE     3205.48 TCPU     3195.85
 TTTTTTTTTTTTTTTTTTTTTTTTTTTTTT MONMO3      TELAPSE     3212.39 TCPU     3202.76
 NUMERICALLY INTEGRATED DENSITY     67.9998044662     64.9997771192
 TTTTTTTTTTTTTTTTTTTTTTTTTTTTTT NUMDFT      TELAPSE     3215.21 TCPU     3205.58
 CYC  21 ETOT(AU) -9.209121909203E+02 DETOT  2.16E-10 tst  2.29E-12 PX  2.64E-06
 CYCLE 21 WAVE FUNCTION SAVED IN FORTRAN UNIT 79
 TTTTTTTTTTTTTTTTTTTTTTTTTTTTTT DIIS        TELAPSE     3215.83 TCPU     3206.01
 DIIS TEST: 0.14648E-10 AT SCF   CYCLE  21 - DIIS ACTIVE - HISTORY:    21 CYCLES
 TTTTTTTTTTTTTTTTTTTTTTTTTTTTTT FDIK        TELAPSE     3216.90 TCPU     3207.07
 SPIN LOCKING: NO ENERGY GAP COMPUTED
 TTTTTTTTTTTTTTTTTTTTTTTTTTTTTT PDIG        TELAPSE     3217.07 TCPU     3207.24
 CHARGE NORMALIZATION FACTOR   1.00000000
 TOTAL ATOMIC CHARGES:
   0.1852303   0.1852301   0.1852301   0.1852299  18.1432299  18.1083742
  18.1083742  18.0857193   7.4814128   7.4719328   7.4814122   7.4719331
   7.4814128   7.4814122   7.4719328   7.4719331
 SUMMED SPIN DENSITY           3.00000000
 TOTAL ATOMIC SPINS  :
  -0.0027280  -0.0027280  -0.0027280  -0.0027280   0.3891712   0.5074485
   0.5074485   0.5889941   0.1229414   0.1315210   0.1229415   0.1315209
   0.1229414   0.1229415   0.1315210   0.1315209
 TTTTTTTTTTTTTTTTTTTTTTTTTTTTTT MOQGAD      TELAPSE     3217.09 TCPU     3207.26
 TTTTTTTTTTTTTTTTTTTTTTTTTTTTTT SHELLXN     TELAPSE     3351.51 TCPU     3341.65
 TTTTTTTTTTTTTTTTTTTTTTTTTTTTTT MONMO3      TELAPSE     3358.40 TCPU     3348.54
 NUMERICALLY INTEGRATED DENSITY     67.9998044662     64.9997771192
 TTTTTTTTTTTTTTTTTTTTTTTTTTTTTT NUMDFT      TELAPSE     3361.22 TCPU     3351.35
 CYC  22 ETOT(AU) -9.209121909202E+02 DETOT  5.10E-11 tst  2.76E-13 PX  8.67E-07
 CYCLE 22 WAVE FUNCTION SAVED IN FORTRAN UNIT 79
 TTTTTTTTTTTTTTTTTTTTTTTTTTTTTT DIIS        TELAPSE     3361.78 TCPU     3351.78
 DIIS TEST: 0.12354E-10 AT SCF   CYCLE  22 - DIIS ACTIVE - HISTORY:    22 CYCLES
 TTTTTTTTTTTTTTTTTTTTTTTTTTTTTT FDIK        TELAPSE     3362.82 TCPU     3352.80
 SPIN LOCKING: NO ENERGY GAP COMPUTED
 TTTTTTTTTTTTTTTTTTTTTTTTTTTTTT PDIG        TELAPSE     3362.99 TCPU     3352.97
 CHARGE NORMALIZATION FACTOR   1.00000000
 TOTAL ATOMIC CHARGES:
   0.1852303   0.1852301   0.1852301   0.1852299  18.1432298  18.1083743
  18.1083743  18.0857194   7.4814129   7.4719328   7.4814122   7.4719330
   7.4814129   7.4814122   7.4719328   7.4719330
 SUMMED SPIN DENSITY           3.00000000
 TOTAL ATOMIC SPINS  :
  -0.0027280  -0.0027280  -0.0027280  -0.0027280   0.3891714   0.5074485
   0.5074485   0.5889940   0.1229414   0.1315210   0.1229416   0.1315209
   0.1229414   0.1229416   0.1315210   0.1315209
 TTTTTTTTTTTTTTTTTTTTTTTTTTTTTT MOQGAD      TELAPSE     3363.01 TCPU     3352.98
 TTTTTTTTTTTTTTTTTTTTTTTTTTTTTT SHELLXN     TELAPSE     3498.10 TCPU     3487.46
 +++ ENERGIES IN A.U. +++
 ::: EXT EL-POLE                                  -4.7472041813334E+03
 ::: EXT EL-SPHEROPOLE                             2.3190744497777E+01
 ::: BIELET ZONE E-E                               5.1676460634879E+03
 ::: TOTAL E-E                                     4.4363262665232E+02
 ::: TOTAL E-N + N-E                              -1.4679406198410E+03
 ::: TOTAL N-N                                    -4.1431339568884E+02
 ::: KINETIC ENERGY                                5.9964873976070E+02
 ::: PSEUDO TOTAL   ENERGY                        -8.3897264911678E+02
 ::: VIRIAL COEFFICIENT                            8.3364357626935E-01
 TTTTTTTTTTTTTTTTTTTTTTTTTTTTTT MONMO3      TELAPSE     3504.43 TCPU     3493.79
 NUMERICALLY INTEGRATED DENSITY     67.9998044662     64.9997771192
 TTTTTTTTTTTTTTTTTTTTTTTTTTTTTT NUMDFT      TELAPSE     3507.24 TCPU     3496.60
 CYC  23 ETOT(AU) -9.209121909201E+02 DETOT  5.58E-11 tst  1.63E-14 PX  8.67E-07

 == SCF ENDED - CONVERGENCE ON ENERGY      E(AU) -9.2091219092014E+02 CYCLES  23


 ENERGY EXPRESSION=HARTREE+FOCK EXCH*0.25000+(PBE        EXCH)*0.75000+PBE        CORR

 FINITE TEMPERATURE DFT CALCULATION 
 TEMPERATURE      (T)    1.000000000000E-13 HARTREE 
 ENERGY           (E)   -9.209121909201E+02
 FREE ENERGY      (F)   -9.209121909201E+02
 ELECTRON ENTROPY (S)    0.000000000000E+00
 (E(T)+F(T))/2    (E0)  -9.209121909201E+02


 TOTAL ENERGY(DFT)(AU)( 23) -9.2091219092014E+02 DE 5.6E-11 tester 1.6E-14
 TTTTTTTTTTTTTTTTTTTTTTTTTTTTTT EDFT        TELAPSE     3507.29 TCPU     3496.60
 EIGENVECTORS IN FORTRAN UNIT 10
 TTTTTTTTTTTTTTTTTTTTTTTTTTTTTT END         TELAPSE     3508.62 TCPU     3497.87
 EEEEEEEEEE TERMINATION  DATE 21 01 2018 TIME 13:24:04.0
NODE    0 CPU TIME =      3497.871
NODE    1 CPU TIME =      3502.959
NODE    2 CPU TIME =      3500.758
NODE    3 CPU TIME =      3501.800
NODE    4 CPU TIME =      3500.854
NODE    5 CPU TIME =      3500.728
NODE    6 CPU TIME =      3499.632
NODE    7 CPU TIME =      3499.602
NODE    8 CPU TIME =      3501.072
NODE    9 CPU TIME =      3500.228
NODE   10 CPU TIME =      3501.417
NODE   11 CPU TIME =      3502.479
NODE   12 CPU TIME =      3501.502
NODE   13 CPU TIME =      3502.217
NODE   14 CPU TIME =      3502.517
NODE   15 CPU TIME =      3499.758
NODE   16 CPU TIME =      3499.976
NODE   17 CPU TIME =      3501.148
NODE   18 CPU TIME =      3499.169
NODE   19 CPU TIME =      3500.092
NODE   20 CPU TIME =      3499.338
NODE   21 CPU TIME =      3495.805
NODE   22 CPU TIME =      3500.839
NODE   23 CPU TIME =      3500.768
NODE   24 CPU TIME =      3500.929
NODE   25 CPU TIME =      3500.921
NODE   26 CPU TIME =      3499.943
NODE   27 CPU TIME =      3499.364
NODE   28 CPU TIME =      3500.843
NODE   29 CPU TIME =      3500.985
NODE   30 CPU TIME =      3498.702
NODE   31 CPU TIME =      3501.580
    TOTAL CPU TIME =    112015.791
