--------------------------------------------------------------------------
[[33570,1],2]: A high-performance Open MPI point-to-point messaging module
was unable to find any relevant network interfaces:

Module: OpenFabrics (openib)
  Host: golub219

Another transport will be used instead, although this may result in
lower performance.
--------------------------------------------------------------------------
 PROCESS            0  OF           20  WORKING
 PROCESS            3  OF           20  WORKING
 PROCESS            4  OF           20  WORKING
 PROCESS            6  OF           20  WORKING
 PROCESS            8  OF           20  WORKING
 PROCESS            9  OF           20  WORKING
 PROCESS           10  OF           20  WORKING
 PROCESS            2  OF           20  WORKING
 PROCESS           11  OF           20  WORKING
 PROCESS           12  OF           20  WORKING
 PROCESS           16  OF           20  WORKING
 PROCESS            7  OF           20  WORKING
 PROCESS           19  OF           20  WORKING
 PROCESS           14  OF           20  WORKING

         
 *******************************************************************************
 *                                                                             *
 *                               CRYSTAL17                                     *
 *                      public : 1.0.1 - Jun 21st, 2017                        *
 *                       HTTP://WWW.CRYSTAL.UNITO.IT                           *
 *                                                                             *
 *                              MAIN AUTHORS                                   *
 *                                                                             *
 *  R. DOVESI(1,11), V.R. SAUNDERS(2), C. ROETTI(1,11), R. ORLANDO(1,11),      *
 *  C.M. ZICOVICH-WILSON(1,3), F. PASCALE(4), B. CIVALLERI(1,11),              *
 *  K. DOLL(5), N.M. HARRISON(2,6), I.J. BUSH(7), Ph. D'ARCO(8),               *
 *  M. LLUNELL(9), M. CAUSA'(10), Y. NOEL(8), L. MASCHIO(1,11), A. ERBA(1,11)  *
 *  M. RE'RAT(14), S. CASASSA(1,11)                                            *
 *                                                                             *
 *        CONTRIBUTIONS TO THE CODE HAVE ALSO BEEN GIVEN BY                    *
 *                                                                             *
 *  M. FERRABONE(1,11), M. DE LA PIERRE(1,11), M. FERRERO(1,11),               *
 *  J. BAIMA(1,11), E. ALBANESE(1,11), M.F. PEINTINGER(12), R. BAST(13),       *
 *  B. KIRTMAN(15), V. LACIVITA(1,11), R. DEMICHELIS(1,16)                     *
 *  G. BRANDEBURG(17), S. SALUSTRO(1,11), G. SANSONE(1,11)                     *
 PROCESS           13  OF           20  WORKING
 *  M.T. RUGGIERO(18)                                                          *
 *                                                                             *
 * (1) THEORETICAL CHEMISTRY GROUP - UNIVERSITA' DI TORINO - TORINO (ITALY)    *

 * (2) COMPUTATIONAL SCIENCE & ENGINEERING DEPARTMENT - STFC DARESBURY (UK)    *
 * (3) UNIVERSIDAD AUTONOMA DEL ESTADO DE MORELOS - CUERNAVACA (MEXICO)        *
 * (4) UNIVERSITE' DE LORRAINE - NANCY (FRANCE)                                *
 * (5) UNIVERSITAET STUTTGART- STUTTGART (GERMANY)                             *
 * (6) IMPERIAL COLLEGE - LONDON (UK)                                          *
 * (7) OXFORD E-RESEARCH CENTRE - OXFORD (UK)                                  *
 * (8) UPMC - SORBONNE UNIVERSITES - PARIS (FRANCE)                            *
 * (9) UNIVERSIDAD DE BARCELONA - BARCELONA (SPAIN)                            *
 *(10) UNIVERSITA' DI NAPOLI "FEDERICO II" - NAPOLI (ITALY)                    *
 *(11) NIS - NANOSTRUCTURED INTERFACES AND SURFACES - TORINO (ITALY)           *
 *(12) MPI FUER CHEMISCHE ENERGIEKONVERSION - MUELHEIM AN DER RUHR (GERMANY)   *
 *(13) UNIVERSITY OF TROMSO - TROMSO (NORWAY)                                  *
 *(14) UNIVERSITE' DE PAU ET DES PAYS DE L'ADOUR - PAU (FRANCE)                *
 *(15) UNIVERSITY OF CALIFORNIA SANTA BARBARA - SANTA BARBARA (USA)            *
 *(16) CURTIN UNIVERSITY - PERTH (AUSTRALIA)                                   *
 *(17) UNIVERSITY COLLEGE LONDON - LONDON (UK)                                 *
 *(18) CAMBRIDGE UNIVERSITY - CAMBRIDGE (UK)                                   *
 *                                                                             *
 *******************************************************************************
 EEEEEEEEEE STARTING  DATE 29 04 2018 TIME 22:55:52.4
 Generated by CrystalWriter                                                      
 PROCESS           17  OF           20  WORKING
 PROCESS            1  OF           20  WORKING
 PROCESS            5  OF           20  WORKING
 PROCESS           15  OF           20  WORKING

 CRYSTAL CALCULATION
 (INPUT ACCORDING TO THE INTERNATIONAL TABLES FOR X-RAY CRYSTALLOGRAPHY)
 CRYSTAL FAMILY                       :  TETRAGONAL  
 CRYSTAL CLASS  (GROTH - 1921)        :  DITETRAGONAL DIPYRAMIDAL             

 SPACE GROUP (CENTROSYMMETRIC)        :  P 4/M M M       

 LATTICE PARAMETERS  (ANGSTROMS AND DEGREES) - CONVENTIONAL CELL
        A           B           C        ALPHA        BETA       GAMMA
     3.92785     3.92785     3.43380    90.00000    90.00000    90.00000


 NUMBER OF IRREDUCIBLE ATOMS IN THE CONVENTIONAL CELL:    4

 INPUT COORDINATES

 ATOM AT. N.              COORDINATES
   1 229     5.000000000000E-01  5.000000000000E-01  0.000000000000E+00
   2 208     0.000000000000E+00  5.000000000000E-01  0.000000000000E+00
   3 208     5.000000000000E-01  0.000000000000E+00  0.000000000000E+00
   4 238     0.000000000000E+00  0.000000000000E+00  5.000000000000E-01

 *******************************************************************************

 << INFORMATION >>: FROM NOW ON, ALL COORDINATES REFER TO THE PRIMITIVE CELL

 *******************************************************************************

 LATTICE PARAMETERS  (ANGSTROMS AND DEGREES) - PRIMITIVE CELL
       A          B          C        ALPHA      BETA     GAMMA        VOLUME
    3.92785    3.92785    3.43380    90.00000  90.00000  90.00000     52.976686

 INPUT LIST - ATOM N.   3 NOT IRREDUCIBLE

 COORDINATES OF THE EQUIVALENT ATOMS (FRACTIONAL UNITS)

 N. ATOM EQUIV AT. N.          X                  Y                  Z

   1   1   1  229 CU   -5.00000000000E-01 -5.00000000000E-01  0.00000000000E+00

   2   2   1  208 O     0.00000000000E+00 -5.00000000000E-01  0.00000000000E+00
   3   2   2  208 O     5.00000000000E-01  0.00000000000E+00  0.00000000000E+00


 NUMBER OF SYMMETRY OPERATORS         :   16
 *******************************************************************************
 * GEOMETRY EDITING - INPUT COORDINATES ARE GIVEN IN ANGSTROM         
 *******************************************************************************

 GEOMETRY NOW FULLY CONSISTENT WITH THE GROUP

 NO SYMMOPS WITH FINITE TRANSLATIONAL COMPONENT

 *******************************************************************************
 * SUPERCELL OPTION
 *******************************************************************************

 INFORMATION **** GEXPAD **** SUPERCELL VOLUME NEGATIVE ? - SIGN OF EXPANSION MATRIX REVERSED

        EXPANSION MATRIX OF PRIMITIVE CELL
 E1    -2.000    -2.000     0.000
 E2     2.000    -2.000     0.000
 E3     0.000     0.000     1.000

 NUMBER OF ATOMS PER SUPERCELL    32

        DIRECT LATTICE VECTORS COMPONENTS (ANGSTROM)
 B1    -7.856    -7.856     0.000
 B2     7.856    -7.856     0.000
 B3     0.000     0.000     3.434

 LATTICE PARAMETERS  (ANGSTROM AND DEGREES)
       A          B          C         ALPHA     BETA     GAMMA        VOLUME
   11.10964   11.10964    3.43380    90.00000  90.00000  90.00000    423.813486


 **** ATOMS BELONGING TO THE SUPERCELL
 LABEL AT.NO.      COORDINATES (ANGSTROM AND FRACTIONAL)
     1   229     5.8918    -1.9639     0.0000    -0.2500     0.5000     0.0000
     2   229     5.8918     1.9639     0.0000    -0.5000     0.2500     0.0000
     3   229    -1.9639    -1.9639     0.0000     0.2500     0.0000     0.0000
     4   229    -1.9639     1.9639     0.0000     0.0000    -0.2500     0.0000
     5   229     1.9639     5.8918     0.0000    -0.5000    -0.2500     0.0000
     6   229     1.9639    -5.8918     0.0000     0.2500     0.5000     0.0000
     7   229     1.9639    -1.9639     0.0000     0.0000     0.2500     0.0000
     8   229     1.9639     1.9639     0.0000    -0.2500     0.0000     0.0000
     9   208    -0.0000     5.8918     0.0000    -0.3750    -0.3750     0.0000
    10   208    -0.0000    -5.8918     0.0000     0.3750     0.3750     0.0000
    11   208     0.0000    -1.9639     0.0000     0.1250     0.1250     0.0000
    12   208     0.0000     1.9639     0.0000    -0.1250    -0.1250     0.0000
    13   208    -3.9279    -1.9639     0.0000     0.3750    -0.1250    PROCESS           18  OF           20  WORKING
  0.0000
    14   208    -3.9279     1.9639     0.0000     0.1250    -0.3750     0.0000
    15   208     3.9278    -1.9639     0.0000    -0.1250     0.3750     0.0000
    16   208     3.9278     1.9639     0.0000    -0.3750     0.1250     0.0000
    17   208     5.8918     0.0000     0.0000    -0.3750     0.3750     0.0000
    18   208    -1.9639    -3.9278     0.0000     0.3750     0.1250     0.0000
    19   208    -1.9639     0.0000     0.0000     0.1250    -0.1250     0.0000
    20   208    -1.9639     3.9278     0.0000    -0.1250    -0.3750     0.0000
    21   208    -5.8918     0.0000     0.0000     0.3750    -0.3750     0.0000
    22   208     1.9639    -3.9278     0.0000     0.1250     0.3750     0.0000
    23   208     1.9639     0.0000     0.0000    -0.1250     0.1250     0.0000
    24   208     1.9639     3.9278     0.0000    -0.3750    -0.1250     0.0000
    25   238     7.8557     0.0000     1.7169    -0.5000     0.5000     0.5000
    26   238     0.0000    -3.9278     1.7169     0.2500     0.2500     0.5000
    27   238     0.0000     0.0000     1.7169     0.0000     0.0000     0.5000
    28   238     0.0000     3.9278     1.7169    -0.2500    -0.2500     0.5000
    29   238    -3.9279     0.0000     1.7169     0.2500    -0.2500     0.5000
    30   238     3.9278    -3.9278     1.7169     0.0000     0.5000     0.5000
    31   238     3.9278     0.0000     1.7169    -0.2500     0.2500     0.5000
    32   238     3.9278     3.9278     1.7169    -0.5000     0.0000     0.5000

 **************************** SUPERCELL GENERATED ****************************
 *********************************************************************
                        ATOMIC SITE SYMMETRIES
 *********************************************************************


 ATOM   1 ATOMIC NUMBER 229 - NUMBER OF SYMMOPS WHICH DO NOT MOVE THE ATOM   4
 SEQUENCE NUMBERS OF THE SYMMOPS
    1    6   10   13
 NUMBER OF ATOMS EQUIVALENT BY SYMMETRY    3
 SEQUENCE NUMBERS OF THESE ATOMS
    6    2    5
 SEQUENCE NUMBERS OF THE CORRESPONDING SYMMOPS
    2    3    4


 ATOM   2 ATOMIC NUMBER 229 - NUMBER OF SYMMOPS WHICH DO NOT MOVE THE ATOM   4
 SEQUENCE NUMBERS OF THE SYMMOPS
    1    5   10   14
 NUMBER OF ATOMS EQUIVALENT BY SYMMETRY    3
 SEQUENCE NUMBERS OF THESE ATOMS
    5    1    6
 SEQUENCE NUMBERS OF THE CORRESPONDING SYMMOPS
    2    3    4


 ATOM   3 ATOMIC NUMBER 229 - NUMBER OF SYMMOPS WHICH DO NOT MOVE THE ATOM   4
 SEQUENCE NUMBERS OF THE SYMMOPS
    1    6   10   13
 NUMBER OF ATOMS EQUIVALENT BY SYMMETRY    3
 SEQUENCE NUMBERS OF THESE ATOMS
    8    4    7
 SEQUENCE NUMBERS OF THE CORRESPONDING SYMMOPS
    2    3    4


 ATOM   4 ATOMIC NUMBER 229 - NUMBER OF SYMMOPS WHICH DO NOT MOVE THE ATOM   4
 SEQUENCE NUMBERS OF THE SYMMOPS
    1    5   10   14
 NUMBER OF ATOMS EQUIVALENT BY SYMMETRY    3
 SEQUENCE NUMBERS OF THESE ATOMS
    7    3    8
 SEQUENCE NUMBERS OF THE CORRESPONDING SYMMOPS
    2    3    4


 ATOM   5 ATOMIC NUMBER 229 - NUMBER OF SYMMOPS WHICH DO NOT MOVE THE ATOM   4
 SEQUENCE NUMBERS OF THE SYMMOPS
    1    5   10   14
 NUMBER OF ATOMS EQUIVALENT BY SYMMETRY    3
 SEQUENCE NUMBERS OF THESE ATOMS
    2    6    1
 SEQUENCE NUMBERS OF THE CORRESPONDING SYMMOPS
    2    3    4


 ATOM   6 ATOMIC NUMBER 229 - NUMBER OF SYMMOPS WHICH DO NOT MOVE THE ATOM   4
 SEQUENCE NUMBERS OF THE SYMMOPS
    1    6   10   13
 NUMBER OF ATOMS EQUIVALENT BY SYMMETRY    3
 SEQUENCE NUMBERS OF THESE ATOMS
    1    5    2
 SEQUENCE NUMBERS OF THE CORRESPONDING SYMMOPS
    2    3    4


 ATOM   7 ATOMIC NUMBER 229 - NUMBER OF SYMMOPS WHICH DO NOT MOVE THE ATOM   4
 SEQUENCE NUMBERS OF THE SYMMOPS
    1    5   10   14
 NUMBER OF ATOMS EQUIVALENT BY SYMMETRY    3
 SEQUENCE NUMBERS OF THESE ATOMS
    4    8    3
 SEQUENCE NUMBERS OF THE CORRESPONDING SYMMOPS
    2    3    4


 ATOM   8 ATOMIC NUMBER 229 - NUMBER OF SYMMOPS WHICH DO NOT MOVE THE ATOM   4
 SEQUENCE NUMBERS OF THE SYMMOPS
    1    6   10   13
 NUMBER OF ATOMS EQUIVALENT BY SYMMETRY    3
 SEQUENCE NUMBERS OF THESE ATOMS
    3    7    4
 SEQUENCE NUMBERS OF THE CORRESPONDING SYMMOPS
    2    3    4


 ATOM   9 ATOMIC NUMBER 208 - NUMBER OF SYMMOPS WHICH DO NOT MOVE THE ATOM   4
 SEQUENCE NUMBERS OF THE SYMMOPS
    1    4   10   11
 NUMBER OF ATOMS EQUIVALENT BY SYMMETRY    3
 SEQUENCE NUMBERS OF THESE ATOMS
   10   21   17
 SEQUENCE NUMBERS OF THE CORRESPONDING SYMMOPS
    2    5    6


 ATOM  10 ATOMIC NUMBER 208 - NUMBER OF SYMMOPS WHICH DO NOT MOVE THE ATOM   4
 SEQUENCE NUMBERS OF THE SYMMOPS
    1    4   10   11
 NUMBER OF ATOMS EQUIVALENT BY SYMMETRY    3
 SEQUENCE NUMBERS OF THESE ATOMS
    9   17   21
 SEQUENCE NUMBERS OF THE CORRESPONDING SYMMOPS
    2    5    6


 ATOM  11 ATOMIC NUMBER 208 - NUMBER OF SYMMOPS WHICH DO NOT MOVE THE ATOM   4
 SEQUENCE NUMBERS OF THE SYMMOPS
    1    4   10   11
 NUMBER OF ATOMS EQUIVALENT BY SYMMETRY    3
 SEQUENCE NUMBERS OF THESE ATOMS
   12   23   19
 SEQUENCE NUMBERS OF THE CORRESPONDING SYMMOPS
    2    5    6


 ATOM  12 ATOMIC NUMBER 208 - NUMBER OF SYMMOPS WHICH DO NOT MOVE THE ATOM   4
 SEQUENCE NUMBERS OF THE SYMMOPS
    1    4   10   11
 NUMBER OF ATOMS EQUIVALENT BY SYMMETRY    3
 SEQUENCE NUMBERS OF THESE ATOMS
   11   19   23
 SEQUENCE NUMBERS OF THE CORRESPONDING SYMMOPS
    2    5    6


 ATOM  13 ATOMIC NUMBER 208 - NUMBER OF SYMMOPS WHICH DO NOT MOVE THE ATOM   2
 SEQUENCE NUMBERS OF THE SYMMOPS
    1   10
 NUMBER OF ATOMS EQUIVALENT BY SYMMETRY    7
 SEQUENCE NUMBERS OF THESE ATOMS
   16   14   15   24   18   20   22
 SEQUENCE NUMBERS OF THE CORRESPONDING SYMMOPS
    2    3    4    5    6    7    8


 ATOM  14 ATOMIC NUMBER 208 - NUMBER OF SYMMOPS WHICH DO NOT MOVE THE ATOM   2
 SEQUENCE NUMBERS OF THE SYMMOPS
    1   10
 NUMBER OF ATOMS EQUIVALENT BY SYMMETRY    7
 SEQUENCE NUMBERS OF THESE ATOMS
   15   13   16   20   22   24   18
 SEQUENCE NUMBERS OF THE CORRESPONDING SYMMOPS
    2    3    4    5    6    7    8


 ATOM  15 ATOMIC NUMBER 208 - NUMBER OF SYMMOPS WHICH DO NOT MOVE THE ATOM   2
 SEQUENCE NUMBERS OF THE SYMMOPS
    1   10
 NUMBER OF ATOMS EQUIVALENT BY SYMMETRY    7
 SEQUENCE NUMBERS OF THESE ATOMS
   14   16   13   22   20   18   24
 SEQUENCE NUMBERS OF THE CORRESPONDING SYMMOPS
    2    3    4    5    6    7    8


 ATOM  16 ATOMIC NUMBER 208 - NUMBER OF SYMMOPS WHICH DO NOT MOVE THE ATOM   2
 SEQUENCE NUMBERS OF THE SYMMOPS
    1   10
 NUMBER OF ATOMS EQUIVALENT BY SYMMETRY    7
 SEQUENCE NUMBERS OF THESE ATOMS
   13   15   14   18   24   22   20
 SEQUENCE NUMBERS OF THE CORRESPONDING SYMMOPS
    2    3    4    5    6    7    8


 ATOM  17 ATOMIC NUMBER 208 - NUMBER OF SYMMOPS WHICH DO NOT MOVE THE ATOM   4
 SEQUENCE NUMBERS OF THE SYMMOPS
    1    3   10   12
 NUMBER OF ATOMS EQUIVALENT BY SYMMETRY    3
 SEQUENCE NUMBERS OF THESE ATOMS
   21   10    9
 SEQUENCE NUMBERS OF THE CORRESPONDING SYMMOPS
    2    5    6


 ATOM  18 ATOMIC NUMBER 208 - NUMBER OF SYMMOPS WHICH DO NOT MOVE THE ATOM   2
 SEQUENCE NUMBERS OF THE SYMMOPS
    1   10
 NUMBER OF ATOMS EQUIVALENT BY SYMMETRY    7
 SEQUENCE NUMBERS OF THESE ATOMS
   24   20   22   16   13   14   15
 SEQUENCE NUMBERS OF THE CORRESPONDING SYMMOPS
    2    3    4    5    6    7    8


 ATOM  19 ATOMIC NUMBER 208 - NUMBER OF SYMMOPS WHICH DO NOT MOVE THE ATOM   4
 SEQUENCE NUMBERS OF THE SYMMOPS
    1    3   10   12
 NUMBER OF ATOMS EQUIVALENT BY SYMMETRY    3
 SEQUENCE NUMBERS OF THESE ATOMS
   23   12   11
 SEQUENCE NUMBERS OF THE CORRESPONDING SYMMOPS
    2    5    6


 ATOM  20 ATOMIC NUMBER 208 - NUMBER OF SYMMOPS WHICH DO NOT MOVE THE ATOM   2
 SEQUENCE NUMBERS OF THE SYMMOPS
    1   10
 NUMBER OF ATOMS EQUIVALENT BY SYMMETRY    7
 SEQUENCE NUMBERS OF THESE ATOMS
   22   18   24   14   15   16   13
 SEQUENCE NUMBERS OF THE CORRESPONDING SYMMOPS
    2    3    4    5    6    7    8


 ATOM  21 ATOMIC NUMBER 208 - NUMBER OF SYMMOPS WHICH DO NOT MOVE THE ATOM   4
 SEQUENCE NUMBERS OF THE SYMMOPS
    1    3   10   12
 NUMBER OF ATOMS EQUIVALENT BY SYMMETRY    3
 SEQUENCE NUMBERS OF THESE ATOMS
   17    9   10
 SEQUENCE NUMBERS OF THE CORRESPONDING SYMMOPS
    2    5    6


 ATOM  22 ATOMIC NUMBER 208 - NUMBER OF SYMMOPS WHICH DO NOT MOVE THE ATOM   2
 SEQUENCE NUMBERS OF THE SYMMOPS
    1   10
 NUMBER OF ATOMS EQUIVALENT BY SYMMETRY    7
 SEQUENCE NUMBERS OF THESE ATOMS
   20   24   18   15   14   13   16
 SEQUENCE NUMBERS OF THE CORRESPONDING SYMMOPS
    2    3    4    5    6    7    8


 ATOM  23 ATOMIC NUMBER 208 - NUMBER OF SYMMOPS WHICH DO NOT MOVE THE ATOM   4
 SEQUENCE NUMBERS OF THE SYMMOPS
    1    3   10   12
 NUMBER OF ATOMS EQUIVALENT BY SYMMETRY    3
 SEQUENCE NUMBERS OF THESE ATOMS
   19   11   12
 SEQUENCE NUMBERS OF THE CORRESPONDING SYMMOPS
    2    5    6


 ATOM  24 ATOMIC NUMBER 208 - NUMBER OF SYMMOPS WHICH DO NOT MOVE THE ATOM   2
 SEQUENCE NUMBERS OF THE SYMMOPS
    1   10
 NUMBER OF ATOMS EQUIVALENT BY SYMMETRY    7
 SEQUENCE NUMBERS OF THESE ATOMS
   18   22   20   13   16   15   14
 SEQUENCE NUMBERS OF THE CORRESPONDING SYMMOPS
    2    3    4    5    6    7    8


 ATOM  25 ATOMIC NUMBER 238 - NUMBER OF SYMMOPS WHICH DO NOT MOVE THE ATOM  16
 SEQUENCE NUMBERS OF THE SYMMOPS
    1    2    3    4    5    6    7    8    9   10   11   12   13   14   15
   16
 NO EQUIVALENT ATOMS


 ATOM  26 ATOMIC NUMBER 238 - NUMBER OF SYMMOPS WHICH DO NOT MOVE THE ATOM   4
 SEQUENCE NUMBERS OF THE SYMMOPS
    1    4   10   11
 NUMBER OF ATOMS EQUIVALENT BY SYMMETRY    3
 SEQUENCE NUMBERS OF THESE ATOMS
   28   31   29
 SEQUENCE NUMBERS OF THE CORRESPONDING SYMMOPS
    2    5    6


 ATOM  27 ATOMIC NUMBER 238 - NUMBER OF SYMMOPS WHICH DO NOT MOVE THE ATOM  16
 SEQUENCE NUMBERS OF THE SYMMOPS
    1    2    3    4    5    6    7    8    9   10   11   12   13   14   15
   16
 NO EQUIVALENT ATOMS


 ATOM  28 ATOMIC NUMBER 238 - NUMBER OF SYMMOPS WHICH DO NOT MOVE THE ATOM   4
 SEQUENCE NUMBERS OF THE SYMMOPS
    1    4   10   11
 NUMBER OF ATOMS EQUIVALENT BY SYMMETRY    3
 SEQUENCE NUMBERS OF THESE ATOMS
   26   29   31
 SEQUENCE NUMBERS OF THE CORRESPONDING SYMMOPS
    2    5    6


 ATOM  29 ATOMIC NUMBER 238 - NUMBER OF SYMMOPS WHICH DO NOT MOVE THE ATOM   4
 SEQUENCE NUMBERS OF THE SYMMOPS
    1    3   10   12
 NUMBER OF ATOMS EQUIVALENT BY SYMMETRY    3
 SEQUENCE NUMBERS OF THESE ATOMS
   31   28   26
 SEQUENCE NUMBERS OF THE CORRESPONDING SYMMOPS
    2    5    6


 ATOM  30 ATOMIC NUMBER 238 - NUMBER OF SYMMOPS WHICH DO NOT MOVE THE ATOM   8
 SEQUENCE NUMBERS OF THE SYMMOPS
    1    2    5    6    9   10   13   14
 NUMBER OF ATOMS EQUIVALENT BY SYMMETRY    1
 SEQUENCE NUMBERS OF THESE ATOMS
   32
 SEQUENCE NUMBERS OF THE CORRESPONDING SYMMOPS
    3


 ATOM  31 ATOMIC NUMBER 238 - NUMBER OF SYMMOPS WHICH DO NOT MOVE THE ATOM   4
 SEQUENCE NUMBERS OF THE SYMMOPS
    1    3   10   12
 NUMBER OF ATOMS EQUIVALENT BY SYMMETRY    3
 SEQUENCE NUMBERS OF THESE ATOMS
   29   26   28
 SEQUENCE NUMBERS OF THE CORRESPONDING SYMMOPS
    2    5    6


 ATOM  32 ATOMIC NUMBER 238 - NUMBER OF SYMMOPS WHICH DO NOT MOVE THE ATOM   8
 SEQUENCE NUMBERS OF THE SYMMOPS
    1    2    5    6    9   10   13   14
 NUMBER OF ATOMS EQUIVALENT BY SYMMETRY    1
 SEQUENCE NUMBERS OF THESE ATOMS
   30
 SEQUENCE NUMBERS OF THE CORRESPONDING SYMMOPS
    3

 *****   16 SYMMOPS - TRANSLATORS IN ANGSTROM
 ***** MATRICES AND TRANSLATORS IN THE CARTESIAN REFERENCE FRAME

 ORDER   : ORDER OF THE OPERATOR

 TRANSLA : REAL TRANSLATION (WITHOUT ORIGIN SHIFT) IN CARTESIAN COORDINATES

 uvw/hkl : ORIENTATION OF THE OPERATOR IN CARTESIAN COORDINATES

 LOCATED : ORIGIN OF THE OPERATOR IN CARTESIAN COORDINATES

   NO.   1 INVERSE   1    ORDER   1        NO.   2 INVERSE   2    ORDER   2
    1.000   0.000   0.000     0.000        -1.000   0.000   0.000     0.000
    0.000   1.000   0.000     0.000         0.000  -1.000   0.000     0.000
    0.000   0.000   1.000     0.000         0.000   0.000   1.000     0.000
             OPERATION E(   1)                       OPERATION C(   2)
 DETERMINANT 1.; ROTATION(DEG)   0.      DETERMINANT 1.; ROTATION(DEG) 180.
 TRANSLA (  0.000    0.000    0.000)     TRANSLA (  0.000    0.000    0.000)
 uvw/hkl (  0.000    0.000    0.000)     uvw/hkl (  0.000    0.000    4.000)
 LOCATED (  0.000    0.000    0.000)     LOCATED (  0.000    0.000    0.000)

   NO.   3 INVERSE   3    ORDER   2        NO.   4 INVERSE   4    ORDER   2
    1.000   0.000   0.000     0.000        -1.000   0.000   0.000     0.000
    0.000  -1.000   0.000     0.000         0.000   1.000   0.000     0.000
    0.000   0.000  -1.000     0.000         0.000   0.000  -1.000     0.000
             OPERATION C(   2)                       OPERATION C(   2)
 DETERMINANT 1.; ROTATION(DEG) 180.      DETERMINANT 1.; ROTATION(DEG) 180.
 TRANSLA (  0.000    0.000    0.000)     TRANSLA (  0.000    0.000    0.000)
 uvw/hkl (  4.000    0.000    0.000)     uvw/hkl (  0.000   -4.000    0.000)
 LOCATED (  0.000    0.000    0.000)     LOCATED (  0.000    0.000    0.000)

   NO.   5 INVERSE   5    ORDER   2        NO.   6 INVERSE   6    ORDER   2
    0.000  -1.000   0.000     0.000         0.000   1.000   0.000     0.000
   -1.000   0.000   0.000     0.000         1.000   0.000   0.000     0.000
    0.000   0.000  -1.000     0.000         0.000   0.000  -1.000     0.000
             OPERATION C(   2)                       OPERATION C(   2)
 DETERMINANT 1.; ROTATION(DEG) 180.      DETERMINANT 1.; ROTATION(DEG) 180.
 TRANSLA (  0.000    0.000    0.000)     TRANSLA (  0.000    0.000    0.000)
 uvw/hkl (  2.000   -2.000    0.000)     uvw/hkl ( -2.000   -2.000    0.000)
 LOCATED (  0.000    0.000    0.000)     LOCATED (  0.000    0.000    0.000)

   NO.   7 INVERSE   8    ORDER   4        NO.   8 INVERSE   7    ORDER   4
    0.000   1.000   0.000     0.000         0.000  -1.000   0.000     0.000
   -1.000   0.000   0.000     0.000         1.000   0.000   0.000     0.000
    0.000   0.000   1.000     0.000         0.000   0.000   1.000     0.000
             OPERATION C(   4)                       OPERATION C(   4)
 DETERMINANT 1.; ROTATION(DEG)  90.      DETERMINANT 1.; ROTATION(DEG)  90.
 TRANSLA (  0.000    0.000    0.000)     TRANSLA (  0.000    0.000    0.000)
 uvw/hkl (  0.000    0.000    2.000)     uvw/hkl (  0.000    0.000    2.000)
 LOCATED (  0.000    0.000    0.000)     LOCATED (  0.000    0.000    0.000)

   NO.   9 INVERSE   9    ORDER   2        NO.  10 INVERSE  10    ORDER   2
   -1.000   0.000   0.000     0.000         1.000   0.000   0.000     0.000
    0.000  -1.000   0.000     0.000         0.000   1.000   0.000     0.000
    0.000   0.000  -1.000     0.000         0.000   0.000  -1.000     0.000
             OPERATION I(   2)                       OPERATION M(   2)
 DETERMINANT-1.; ROTATION(DEG) 180.      DETERMINANT-1.; ROTATION(DEG)   0.
 TRANSLA (  0.000    0.000    0.000)     TRANSLA (  0.000    0.000    0.000)
 uvw/hkl (  0.000    0.000    0.000)     uvw/hkl (  0.000    0.000   -2.000)
 LOCATED (  0.000    0.000    0.000)     LOCATED (  0.000    0.000    0.000)

   NO.  11 INVERSE  11    ORDER   2        NO.  12 INVERSE  12    ORDER   2
   -1.000   0.000   0.000     0.000         1.000   0.000   0.000     0.000
    0.000   1.000   0.000     0.000         0.000  -1.000   0.000     0.000
    0.000   0.000   1.000     0.000         0.000   0.000   1.000     0.000
             OPERATION M(   2)                       OPERATION M(   2)
 DETERMINANT-1.; ROTATION(DEG)   0.      DETERMINANT-1.; ROTATION(DEG)   0.
 TRANSLA (  0.000    0.000    0.000)     TRANSLA (  0.000    0.000    0.000)
 uvw/hkl (  2.000    0.000    0.000)     uvw/hkl (  0.000   -2.000    0.000)
 LOCATED (  0.000    0.000    0.000)     LOCATED (  0.000    0.000    0.000)

   NO.  13 INVERSE  13    ORDER   2        NO.  14 INVERSE  14    ORDER   2
    0.000   1.000   0.000     0.000         0.000  -1.000   0.000     0.000
    1.000   0.000   0.000     0.000        -1.000   0.000   0.000     0.000
    0.000   0.000   1.000     0.000         0.000   0.000   1.000     0.000
             OPERATION M(   2)                       OPERATION M(   2)
 DETERMINANT-1.; ROTATION(DEG)   0.      DETERMINANT-1.; ROTATION(DEG)   0.
 TRANSLA (  0.000    0.000    0.000)     TRANSLA (  0.000    0.000    0.000)
 uvw/hkl (  1.000   -1.000    0.000)     uvw/hkl (  1.000    1.000    0.000)
 LOCATED (  0.000    0.000    0.000)     LOCATED (  0.000    0.000    0.000)

   NO.  15 INVERSE  16    ORDER   4        NO.  16 INVERSE  15    ORDER   4
    0.000  -1.000   0.000     0.000         0.000   1.000   0.000     0.000
    1.000   0.000   0.000     0.000        -1.000   0.000   0.000     0.000
    0.000   0.000  -1.000     0.000         0.000   0.000  -1.000     0.000
             OPERATION S(   4)                       OPERATION S(   4)
 DETERMINANT-1.; ROTATION(DEG)  90.      DETERMINANT-1.; ROTATION(DEG)  90.
 TRANSLA (  0.000    0.000    0.000)     TRANSLA (  0.000    0.000    0.000)
 uvw/hkl (  0.000    0.000    2.000)     uvw/hkl (  0.000    0.000    2.000)
 LOCATED (  0.000    0.000    0.000)     LOCATED (  0.000    0.000    0.000)
 SSSSSSSSSSSSSSSSSSSSSSSSSSSSSSSSSSSSSSSSSSSSSSSSSSSSSSSSSSSSSSSSSSSSSSSSSSSSSS
 REDUCTION OF SYMMETRY - ATOMIC LABELS SET TO (ATOM, AT. N., LABEL)
   1(229) 1;   2(229) 2;   3(229) 3;   4(229) 4;   5(229) 5;   6(229) 6;
   7(229) 7;   8(229) 8;   9(208) 0;  10(208) 0;  11(208) 0;  12(208) 0;
  13(208) 0;  14(208) 0;  15(208) 0;  16(208) 0;  17(208) 0;  18(208) 0;
  19(208) 0;  20(208) 0;  21(208) 0;  22(208) 0;  23(208) 0;  24(208) 0;
  25(238) 0;  26(238) 0;  27(238) 0;  28(238) 0;  29(238) 0;  30(238) 0;
  31(238) 0;  32(238) 0;
 THE NUMBER OF SYMMETRY OPERATORS HAS BEEN REDUCED FROM 16 TO  2
 *******************************************************************************

 GCALCO - MAX INDICES DIRECT LATTICE VECTOR     9     9    32
 NO.OF VECTORS CREATED 6999 STARS  569 RMAX   168.68580 BOHR

 GEOMETRY FOR WAVE FUNCTION - DIMENSIONALITY OF THE SYSTEM    3
 (NON PERIODIC DIRECTION: LATTICE PARAMETER FORMALLY SET TO 500)
 *******************************************************************************
 LATTICE PARAMETERS (ANGSTROMS AND DEGREES) - BOHR = 0.5291772083 ANGSTROM
 PRIMITIVE CELL - CENTRING CODE 1/1 VOLUME=   423.813486 - DENSITY  5.731 g/cm^3
         A              B              C           ALPHA      BETA       GAMMA 
    11.10963748    11.10963748     3.43380000    90.000000  90.000000  90.000000
 *******************************************************************************
 ATOMS IN THE ASYMMETRIC UNIT   32 - ATOMS IN THE UNIT CELL:   32
     ATOM                 X/A                 Y/B                 Z/C    
 *******************************************************************************
      1 T 229 CU   -2.500000000000E-01 -5.000000000000E-01  0.000000000000E+00
      2 T 229 CU   -5.000000000000E-01  2.500000000000E-01  0.000000000000E+00
      3 T 229 CU    2.500000000000E-01  0.000000000000E+00  0.000000000000E+00
      4 T 229 CU    0.000000000000E+00 -2.500000000000E-01  0.000000000000E+00
      5 T 229 CU   -5.000000000000E-01 -2.500000000000E-01  0.000000000000E+00
      6 T 229 CU    2.500000000000E-01 -5.000000000000E-01  0.000000000000E+00
      7 T 229 CU    0.000000000000E+00  2.500000000000E-01  0.000000000000E+00
      8 T 229 CU   -2.500000000000E-01  0.000000000000E+00  0.000000000000E+00
      9 T 208 O    -3.750000000000E-01 -3.750000000000E-01  0.000000000000E+00
     10 T 208 O     3.750000000000E-01  3.750000000000E-01  0.000000000000E+00
     11 T 208 O     1.250000000000E-01  1.250000000000E-01  0.000000000000E+00
     12 T 208 O    -1.250000000000E-01 -1.250000000000E-01  0.000000000000E+00
     13 T 208 O     3.750000000000E-01 -1.250000000000E-01  0.000000000000E+00
     14 T 208 O     1.250000000000E-01 -3.750000000000E-01  0.000000000000E+00
     15 T 208 O    -1.250000000000E-01  3.750000000000E-01  0.000000000000E+00
     16 T 208 O    -3.750000000000E-01  1.250000000000E-01  0.000000000000E+00
     17 T 208 O    -3.750000000000E-01  3.750000000000E-01  0.000000000000E+00
     18 T 208 O     3.750000000000E-01  1.250000000000E-01  0.000000000000E+00
     19 T 208 O     1.250000000000E-01 -1.250000000000E-01  0.000000000000E+00
     20 T 208 O    -1.250000000000E-01 -3.750000000000E-01  0.000000000000E+00
     21 T 208 O     3.750000000000E-01 -3.750000000000E-01  0.000000000000E+00
     22 T 208 O     1.250000000000E-01  3.750000000000E-01  0.000000000000E+00
     23 T 208 O    -1.250000000000E-01  1.250000000000E-01  0.000000000000E+00
     24 T 208 O    -3.750000000000E-01 -1.250000000000E-01  0.000000000000E+00
     25 T 238 SR   -5.000000000000E-01 -5.000000000000E-01  5.000000000000E-01
     26 T 238 SR    2.500000000000E-01  2.500000000000E-01  5.000000000000E-01
     27 T 238 SR    0.000000000000E+00  0.000000000000E+00  5.000000000000E-01
     28 T 238 SR   -2.500000000000E-01 -2.500000000000E-01  5.000000000000E-01
     29 T 238 SR    2.500000000000E-01 -2.500000000000E-01  5.000000000000E-01
     30 T 238 SR    0.000000000000E+00 -5.000000000000E-01  5.000000000000E-01
     31 T 238 SR   -2.500000000000E-01  2.500000000000E-01  5.000000000000E-01
     32 T 238 SR   -5.000000000000E-01  0.000000000000E+00  5.000000000000E-01

 T = ATOM BELONGING TO THE ASYMMETRIC UNIT

 ****    2 SYMMOPS - TRANSLATORS IN FRACTIONAL UNITS
 **** MATRICES AND TRANSLATORS IN THE CRYSTALLOGRAPHIC REFERENCE FRAME
   V INV                    ROTATION MATRICES                   TRANSLATORS
   1   1  1.00  0.00  0.00  0.00  1.00  0.00  0.00  0.00  1.00  0.00  0.00  0.00
   2   2  1.00 -0.00  0.00 -0.00  1.00  0.00  0.00  0.00 -1.00  0.00  0.00  0.00

 DIRECT LATTICE VECTORS CARTESIAN COMPONENTS (ANGSTROM)
          X                    Y                    Z
  -0.785570000000E+01  -0.785570000000E+01   0.000000000000E+00
   0.785570000000E+01  -0.785570000000E+01   0.000000000000E+00
   0.000000000000E+00   0.000000000000E+00   0.343380000000E+01


 CARTESIAN COORDINATES - PRIMITIVE CELL
 *******************************************************************************
 *      ATOM          X(ANGSTROM)         Y(ANGSTROM)         Z(ANGSTROM)
 *******************************************************************************
    1   229 CU    5.891775000000E+00 -1.963925000000E+00  0.000000000000E+00
    2   229 CU   -1.963925000000E+00 -5.891775000000E+00  0.000000000000E+00
    3   229 CU   -1.963925000000E+00 -1.963925000000E+00  0.000000000000E+00
    4   229 CU   -1.963925000000E+00  1.963925000000E+00  0.000000000000E+00
    5   229 CU   -5.891775000000E+00 -1.963925000000E+00  0.000000000000E+00
    6   229 CU    1.963925000000E+00 -5.891775000000E+00  0.000000000000E+00
    7   229 CU    1.963925000000E+00 -1.963925000000E+00  0.000000000000E+00
    8   229 CU    1.963925000000E+00  1.963925000000E+00  0.000000000000E+00
    9   208 O    -9.400075532184E-16  5.891775000000E+00  0.000000000000E+00
   10   208 O    -9.400075532184E-16 -5.891775000000E+00  0.000000000000E+00
   11   208 O     0.000000000000E+00 -1.963925000000E+00  0.000000000000E+00
   12   208 O     4.700037766092E-16  1.963925000000E+00  0.000000000000E+00
   13   208 O    -3.927850000000E+00 -1.963925000000E+00  0.000000000000E+00
   14   208 O    -3.927850000000E+00  1.963925000000E+00  0.000000000000E+00
   15   208 O     3.927850000000E+00 -1.963925000000E+00  0.000000000000E+00
   16   208 O     3.927850000000E+00  1.963925000000E+00  0.000000000000E+00
   17   208 O     5.891775000000E+00  9.400075532184E-16  0.000000000000E+00
   18   208 O    -1.963925000000E+00 -3.927850000000E+00  0.000000000000E+00
   19   208 O    -1.963925000000E+00  0.000000000000E+00  0.000000000000E+00
   20   208 O    -1.963925000000E+00  3.927850000000E+00  0.000000000000E+00
   21   208 O    -5.891775000000E+00  1.880015106437E-15  0.000000000000E+00
   22   208 O     1.963925000000E+00 -3.927850000000E+00  0.000000000000E+00
   23   208 O     1.963925000000E+00  4.700037766092E-16  0.000000000000E+00
   24   208 O     1.963925000000E+00  3.927850000000E+00  0.000000000000E+00
   25   238 SR    0.000000000000E+00 -7.855700000000E+00  1.716900000000E+00
   26   238 SR    0.000000000000E+00 -3.927850000000E+00  1.716900000000E+00
   27   238 SR    0.000000000000E+00  0.000000000000E+00  1.716900000000E+00
   28   238 SR    4.700037766092E-16  3.927850000000E+00  1.716900000000E+00
   29   238 SR   -3.927850000000E+00  1.645013218132E-15  1.716900000000E+00
   30   238 SR    3.927850000000E+00 -3.927850000000E+00  1.716900000000E+00
   31   238 SR    3.927850000000E+00  4.700037766092E-16  1.716900000000E+00
   32   238 SR   -3.927850000000E+00 -3.927850000000E+00  1.716900000000E+00

 *******************************************************************************
 *** PSEUDOPOTENTIAL INFORMATION ***
 *******************************************************************************

 ATOMIC NUMBER  29, NUCLEAR CHARGE 19.000, GIVEN IN INPUT       PSEUDOPOTENTIAL
   TYPE       EXPONENT      COEFF.    N      EXPONENT      COEFF.    N
  W0 TMS     6.2514963   19.0000000  -1     6.7272533  118.7784294   1
             6.6102459 -105.8998240   0
  P0 TMS    12.3656871  127.3506942   0
  P1 TMS    11.1607294   71.2298490   0

 ATOMIC NUMBER   8, NUCLEAR CHARGE  6.000, GIVEN IN INPUT       PSEUDOPOTENTIAL
   TYPE       EXPONENT      COEFF.    N      EXPONENT      COEFF.    N
  W0 TMS     9.2979390    6.0000000  -1     8.8649220   55.7876342   1
             8.6292567  -38.8197850   0
  P0 TMS     8.7192445   38.4191413   0

 ATOMIC NUMBER  38, NUCLEAR CHARGE  2.000, GIVEN IN INPUT       PSEUDOPOTENTIAL
   TYPE       EXPONENT      COEFF.    N      EXPONENT      COEFF.    N
  W0 TMS     4.3839388    2.0000000  -1     3.1964983    8.7678775   1
             0.9899150  -14.2552431   0
  P0 TMS     1.2868349  146.8716052   0
  P1 TMS     0.9567448  140.0262284   0
  P2 TMS     1.9483165   24.4454878   0
 INFORMATION **** CHARGED ****  CHARGED CELL - NO TOTAL ENERGY

 NUCLEAR CHARGE  2.640E+02 CHARGE ON SHELLS  2.660E+02
 WARNING **** INPBAS **** UNIT CELL NOT NEUTRAL

 *******************************************************************************
 LOCAL ATOMIC FUNCTIONS BASIS SET
 *******************************************************************************
   ATOM   X(AU)   Y(AU)   Z(AU)  N. TYPE  EXPONENT  S COEF   P COEF   D/F/G COEF
 *******************************************************************************
   1 CU  11.134  -3.711   0.000
                                  1 S  
                                         2.785E+01-1.934E-02 0.000E+00 0.000E+00
                                         2.142E+01 8.861E-02 0.000E+00 0.000E+00
                                         1.054E+01-3.559E-01 0.000E+00 0.000E+00
                                         2.536E+00 5.381E-01 0.000E+00 0.000E+00
                                         1.250E+00 5.111E-01 0.000E+00 0.000E+00
                                         5.998E-01 1.476E-01 0.000E+00 0.000E+00
                                  2 S  
                                         2.785E+01-2.653E-03 0.000E+00 0.000E+00
                                         2.142E+01-7.542E-03 0.000E+00 0.000E+00
                                         1.054E+01 7.976E-02 0.000E+00 0.000E+00
                                         2.536E+00-1.553E-01 0.000E+00 0.000E+00
                                         1.250E+00-2.531E-01 0.000E+00 0.000E+00
                                         5.998E-01-2.817E-02 0.000E+00 0.000E+00
                           3-     5 P  
                                         1.859E+01 0.000E+00 3.652E-03 0.000E+00
                                         1.430E+01 0.000E+00-3.708E-02 0.000E+00
                                         5.631E+00 0.000E+00 2.171E-01 0.000E+00
                                         2.683E+00 0.000E+00 4.410E-01 0.000E+00
                                         1.259E+00 0.000E+00 3.587E-01 0.000E+00
                                         5.741E-01 0.000E+00 1.148E-01 0.000E+00
                                         2.092E-01 0.000E+00 7.316E-03 0.000E+00
                           6-    10 D  
                                         1.579E+01 0.000E+00 0.000E+00 8.422E-02
                                         7.203E+00 0.000E+00 0.000E+00 2.554E-01
                                         2.974E+00 0.000E+00 0.000E+00 3.500E-01
                                         1.207E+00 0.000E+00 0.000E+00 3.417E-01
                                         4.640E-01 0.000E+00 0.000E+00 2.417E-01
                          11-    17 F  
                                         1.692E+00 0.000E+00 0.000E+00 1.000E+00
                                 18 S  
                                         2.000E-01 1.000E+00 0.000E+00 0.000E+00
                                 19 S  
                                         6.000E-01 1.000E+00 0.000E+00 0.000E+00
                          20-    22 P  
                                         2.000E-01 0.000E+00 1.000E+00 0.000E+00
                          23-    25 P  
                                         6.000E-01 0.000E+00 1.000E+00 0.000E+00
                          26-    30 D  
                                         2.000E-01 0.000E+00 0.000E+00 1.000E+00
                          31-    35 D  
                                         6.000E-01 0.000E+00 0.000E+00 1.000E+00
   2 CU  -3.711 -11.134   0.000
   3 CU  -3.711  -3.711   0.000
   4 CU  -3.711   3.711   0.000
   5 CU -11.134  -3.711   0.000
   6 CU   3.711 -11.134   0.000
   7 CU   3.711  -3.711   0.000
   8 CU   3.711   3.711   0.000
   9 O   -0.000  11.134   0.000
                                281 S  
                                         2.680E-01 3.048E-01 0.000E+00 0.000E+00
                                         5.731E-01 4.538E-01 0.000E+00 0.000E+00
                                         1.225E+00 2.959E-01 0.000E+00 0.000E+00
                                         2.620E+00 1.957E-02 0.000E+00 0.000E+00
                                         5.603E+00-1.286E-01 0.000E+00 0.000E+00
                                         1.198E+01 1.202E-02 0.000E+00 0.000E+00
                                         2.562E+01 4.070E-04 0.000E+00 0.000E+00
                                         5.478E+01-7.600E-05 0.000E+00 0.000E+00
                         282-   284 P  
                                         3.337E-01 0.000E+00 2.560E-01 0.000E+00
                                         6.666E-01 0.000E+00 2.819E-01 0.000E+00
                                         1.332E+00 0.000E+00 2.428E-01 0.000E+00
                                         2.661E+00 0.000E+00 1.611E-01 0.000E+00
                                         5.316E+00 0.000E+00 8.231E-02 0.000E+00
                                         1.062E+01 0.000E+00 3.990E-02 0.000E+00
                                         2.122E+01 0.000E+00 4.679E-03 0.000E+00
                         285-   289 D  
                                         6.693E-01 0.000E+00 0.000E+00 1.000E+00
                         290-   296 F  
                                         1.423E+00 0.000E+00 0.000E+00 1.000E+00
                                297 S  
                                         2.000E-01 1.000E+00 0.000E+00 0.000E+00
                                298 S  
                                         6.000E-01 1.000E+00 0.000E+00 0.000E+00
                         299-   301 P  
                                         2.000E-01 0.000E+00 1.000E+00 0.000E+00
                         302-   304 P  
                                         6.000E-01 0.000E+00 1.000E+00 0.000E+00
  10 O   -0.000 -11.134   0.000
  11 O    0.000  -3.711   0.000
  12 O    0.000   3.711   0.000
  13 O   -7.423  -3.711   0.000
  14 O   -7.423   3.711   0.000
  15 O    7.423  -3.711   0.000
  16 O    7.423   3.711   0.000
  17 O   11.134   0.000   0.000
  18 O   -3.711  -7.423   0.000
  19 O   -3.711   0.000   0.000
  20 O   -3.711   7.423   0.000
  21 O  -11.134   0.000   0.000
  22 O    3.711  -7.423   0.000
  23 O    3.711   0.000   0.000
  24 O    3.711   7.423   0.000
  25 SR   0.000 -14.845   3.244
                                665 S  
                                         2.177E-01-9.389E-02 0.000E+00 0.000E+00
                                         4.871E-01-2.476E-01 0.000E+00 0.000E+00
                                         1.090E+00 1.601E-01 0.000E+00 0.000E+00
                                         2.439E+00-4.360E-02 0.000E+00 0.000E+00
                                         5.457E+00 8.684E-03 0.000E+00 0.000E+00
                                         1.221E+01-1.296E-03 0.000E+00 0.000E+00
                         666-   668 P  
                                         2.236E-01 0.000E+00-4.747E-02 0.000E+00
                                         4.507E-01 0.000E+00-1.710E-01 0.000E+00
                                         9.086E-01 0.000E+00 1.048E-01 0.000E+00
                                         1.831E+00 0.000E+00-2.952E-02 0.000E+00
                                         3.692E+00 0.000E+00 6.196E-03 0.000E+00
                                         7.442E+00 0.000E+00-9.550E-04 0.000E+00
                         669-   673 D  
                                         5.283E-01 0.000E+00 0.000E+00 1.000E+00
                                674 S  
                                         2.000E-01 1.000E+00 0.000E+00 0.000E+00
                                675 S  
                                         6.000E-01 1.000E+00 0.000E+00 0.000E+00
                         676-   678 P  
                                         2.000E-01 0.000E+00 1.000E+00 0.000E+00
                         679-   681 P  
                                         6.000E-01 0.000E+00 1.000E+00 0.000E+00
  26 SR   0.000  -7.423   3.244
  27 SR   0.000   0.000   3.244
  28 SR   0.000   7.423   3.244
  29 SR  -7.423   0.000   3.244
  30 SR   7.423  -7.423   3.244
  31 SR   7.423   0.000   3.244
  32 SR  -7.423  -7.423   3.244
 INFORMATION **** SET_MPP **** PCRYSTAL CALCULATION
 INFORMATION **** READM2 **** NEW DEFAULT: FOCK/KS MATRIX MIXING SET TO 30 %
 INFORMATION **** READM2 **** NEW DEFAULT: FULL DIRECT SCF MODE
 INFORMATION **** READM2 **** NEW DEFAULT: COULOMB BIPOLAR BUFFER SET TO 32 Mb
 INFORMATION **** READM2 **** NEW DEFAULT: EXCHANGE BIPOLAR BUFFER SET TO 32 Mb

 *******************************************************************************
 NEW DEFAULT: DFT INTEGRATION GRID INCREASED TO XLGRID
 NEW DEFAULT: DIIS ACCELERATOR ACTIVE
 USE KEYWORD NODIIS TO TURN IT OFF
 *******************************************************************************

 INFORMATION **** READM2 **** FULL DIRECT SCF (MONO AND BIEL INT) SELECTED
 INFORMATION **** BIPOSIZE **** COULOMB BIPOLAR BUFFER SET TO   100000000
 INFORMATION **** EXCHSIZE **** EXCHANGE BIPOLAR BUFFER SIZE SET TO    10000000
 INFORMATION **** TOLDEE **** SCF TOL ON TOTAL ENERGY SET TO          10
 INFORMATION **** TOLINTEG **** COULOMB AND EXCHANGE SERIES TOLERANCES MODIFIED
 INFORMATION **** MAXCYCLE **** MAX NUMBER OF SCF CYCLES SET TO         200
 INFORMATION **** SMEAR **** FERMI SMEARING ACTIVE
 FERMI SMEARING - TEMPERATURE SMEARING OF FERMI SURFACE  0.1000E-12
 INFORMATION **** SAVEWF **** not fully tested
 INFORMATION **** SPINLOCK **** LOCK IN A GIVEN SPIN STATE
 ALPHA-BETA ELECTRONS LOCKED TO   2 FOR 200 SCF CYCLES
 SSSSSSSSSSSSSSSSSSSSSSSSSSSSSSSSSSSSSSSSSSSSSSSSSSSSSSSSSSSSSSSSSSSSSSSSSSSSSS
 ATOMIC SPINS SET TO (ATOM, AT. N., SPIN)
   1 229-1   2 229 1   3 229 1   4 229 1   5 229 1   6 229-1   7 229-1   8 229-1
   9 208 0  10 208 0  11 208 0  12 208 0  13 208 0  14 208 0  15 208 0  16 208 0
  17 208 0  18 208 0  19 208 0  20 208 0  21 208 0  22 208 0  23 208 0  24 208 0
  25 238 0  26 238 0  27 238 0  28 238 0  29 238 0  30 238 0  31 238 0  32 238 0
 *******************************************************************************
 N. OF ATOMS PER CELL        32  COULOMB OVERLAP TOL         (T1) 10**   -8
 NUMBER OF SHELLS           272  COULOMB PENETRATION TOL     (T2) 10**   -8
 NUMBER OF AO               800  EXCHANGE OVERLAP TOL        (T3) 10**   -8
 N. OF ELECTRONS PER CELL   266  EXCHANGE PSEUDO OVP (F(G))  (T4) 10**   -8
 CORE ELECTRONS PER CELL      0  EXCHANGE PSEUDO OVP (P(G))  (T5) 10**  -16
 N. OF SYMMETRY OPERATORS     2  POLE ORDER IN MONO ZONE                  4
 *******************************************************************************
 TYPE OF CALCULATION :  UNRESTRICTED OPEN SHELL
 KOHN-SHAM HAMILTONIAN

 (EXCHANGE)[CORRELATION] FUNCTIONAL:(PERDEW-BURKE-ERNZERHOF)[PERDEW-BURKE-ERNZERHOF]


 HYBRID EXCHANGE - PERCENTAGE OF FOCK EXCHANGE    25.0000

 SPIN POLARIZED DFT SELECTED
 CORE  PSEUDO POTENTIAL         TOL. ON PSEUDO              (TP) 10**- 6
 SPIN POLARIZATION - ALPHA-BETA =  2 FOR 200 CYCLES

 CAPPA:IS1  5;IS2  5;IS3  4; K PTS MONK NET  39; SYMMOPS:K SPACE   4;G SPACE   2

 *******************************************************************************
 MAX NUMBER OF SCF CYCLES     200  CONVERGENCE ON DELTAP        10**-20
 WEIGHT OF F(I) IN F(I+1)      90% CONVERGENCE ON ENERGY        10**-10
 SPIN POLARIZATION - ALPHA-BETA =  2 FOR 200 CYCLES
 SHRINK. FACT.(MONKH.)    5  5  4  NUMBER OF K POINTS IN THE IBZ     39
 SHRINKING FACTOR(GILAT NET)   10  NUMBER OF K POINTS(GILAT NET)    260
 *******************************************************************************
 *** K POINTS COORDINATES (OBLIQUE COORDINATES IN UNITS OF IS =  5)
   1-R(  0  0  0)   2-C(  1  0  0)   3-C(  2  0  0)   4-C(  0  1  0)
   5-C(  1  1  0)   6-C(  2  1  0)   7-C(  3  1  0)   8-C(  4  1  0)
   9-C(  0  2  0)  10-C(  1  2  0)  11-C(  2  2  0)  12-C(  3  2  0)
  13-C(  4  2  0)  14-C(  0  0  1)  15-C(  1  0  1)  16-C(  2  0  1)
  17-C(  0  1  1)  18-C(  1  1  1)  19-C(  2  1  1)  20-C(  3  1  1)
  21-C(  4  1  1)  22-C(  0  2  1)  23-C(  1  2  1)  24-C(  2  2  1)
  25-C(  3  2  1)  26-C(  4  2  1)  27-R(  0  0  2)  28-C(  1  0  2)
  29-C(  2  0  2)  30-C(  0  1  2)  31-C(  1  1  2)  32-C(  2  1  2)
  33-C(  3  1  2)  34-C(  4  1  2)  35-C(  0  2  2)  36-C(  1  2  2)
  37-C(  2  2  2)  38-C(  3  2  2)  39-C(  4  2  2)

 DIRECT LATTICE VECTORS COMPON. (A.U.)     RECIP. LATTICE VECTORS COMPON. (A.U.) 
        X            Y            Z              X            Y            Z
  -14.8451216  -14.8451216    0.0000000     -0.2116246   -0.2116246    0.0000000
   14.8451216  -14.8451216    0.0000000      0.2116246   -0.2116246    0.0000000
    0.0000000    0.0000000    6.4889416      0.0000000    0.0000000    0.9682912

 DISK SPACE FOR EIGENVECTORS (FTN 10)    48640000 REALS

 SYMMETRY ADAPTION OF THE BLOCH FUNCTIONS ENABLED
 TTTTTTTTTTTTTTTTTTTTTTTTTTTTTT gordsh1     TELAPSE        1.27 TCPU        0.03

 MATRIX SIZE: P(G) 2526000, F(G)  450872, P(G) IRR  779600, F(G) IRR  299088
 MAX G-VECTOR INDEX FOR 1- AND 2-ELECTRON INTEGRALS  69

 TTTTTTTTTTTTTTTTTTTTTTTTTTTTTT INPUT       TELAPSE        1.52 TCPU        0.28

 NEIGHBORS OF THE NON-EQUIVALENT ATOMS

 N = NUMBER OF NEIGHBORS AT DISTANCE R
    ATOM  N     R/ANG      R/AU   NEIGHBORS (ATOM LABELS AND CELL INDICES)
   1 CU   4     1.9639     3.7113    9 O    0 1 0   15 O    0 0 0   17 O    0 0 0
                                    20 O    0 1 0
   1 CU   8     3.2652     6.1704   25 SR  -1 0 0   25 SR  -1 0-1   28 SR   0 1 0
                                    28 SR   0 1-1   30 SR   0 0 0   30 SR   0 0-1
                                    31 SR   0 0 0   31 SR   0 0-1
   1 CU   2     3.4338     6.4889    1 CU   0 0-1    1 CU   0 0 1
   1 CU   4     3.9278     7.4226    2 CU  -1 0 0    4 CU   0 1 0    5 CU  -1 1 0
                                     7 CU   0 0 0
   1 CU   8     3.9558     7.4753    9 O    0 1 1    9 O    0 1-1   15 O    0 0-1
                                    15 O    0 0 1   17 O    0 0 1   17 O    0 0-1
                                    20 O    0 1 1   20 O    0 1-1
   1 CU   8     4.3915     8.2987   10 O   -1 0 0   12 O    0 1 0   14 O    0 1 0
                                    16 O    0 0 0   21 O   -1 1 0   22 O    0 0 0
                                    23 O    0 0 0   24 O    0 1 0

   2 CU   4     1.9639     3.7113   10 O    0 0 0   16 O    1 0 0   17 O    1 0 0
                                    18 O    0 0 0
   2 CU   8     3.2652     6.1704   25 SR   0 0 0   25 SR   0 0-1   26 SR   0 0 0
                                    26 SR   0 0-1   31 SR   1 0 0   31 SR   1 0-1
                                    32 SR   0 0 0   32 SR   0 0-1
   2 CU   2     3.4338     6.4889    2 CU   0 0-1    2 CU   0 0 1
   2 CU   4     3.9278     7.4226    1 CU   1 0 0    3 CU   0 0 0    6 CU   0 0 0
                                     8 CU   1 0 0
   2 CU   8     3.9558     7.4753   10 O    0 0 1   10 O    0 0-1   16 O    1 0 1
                                    16 O    1 0-1   17 O    1 0 1   17 O    1 0-1
                                    18 O    0 0 1   18 O    0 0-1
   2 CU   8     4.3915     8.2987    9 O    1 1 0   11 O    0 0 0   13 O    0 0 0
                                    15 O    1 0 0   21 O    0 1 0   22 O    0 0 0
                                    23 O    1 0 0   24 O    1 0 0

   3 CU   4     1.9639     3.7113   11 O    0 0 0   13 O    0 0 0   18 O    0 0 0
                                    19 O    0 0 0
   3 CU   8     3.2652     6.1704   26 SR   0 0 0   26 SR   0 0-1   27 SR   0 0 0
                                    27 SR   0 0-1   29 SR   0 0 0   29 SR   0 0-1
                                    32 SR   0 0 0   32 SR   0 0-1
   3 CU   2     3.4338     6.4889    3 CU   0 0-1    3 CU   0 0 1
   3 CU   4     3.9278     7.4226    2 CU   0 0 0    4 CU   0 0 0    5 CU   0 0 0
                                     7 CU   0 0 0
   3 CU   8     3.9558     7.4753   11 O    0 0 1   11 O    0 0-1   13 O    0 0-1
                                    13 O    0 0 1   18 O    0 0-1   18 O    0 0 1
                                    19 O    0 0 1   19 O    0 0-1
   3 CU   8     4.3915     8.2987   10 O    0 0 0   12 O    0 0 0   14 O    0 0 0
                                    16 O    1 0 0   21 O    0 0 0   22 O    0 0 0
                                    23 O    0 0 0   24 O    1 0 0

   4 CU   4     1.9639     3.7113   12 O    0 0 0   14 O    0 0 0   19 O    0 0 0
                                    20 O    0 0 0
   4 CU   8     3.2652     6.1704   27 SR   0 0 0   27 SR   0 0-1   28 SR   0 0 0
                                    28 SR   0 0-1   29 SR   0 0 0   29 SR   0 0-1
                                    30 SR   0-1 0   30 SR   0-1-1
   4 CU   2     3.4338     6.4889    4 CU   0 0-1    4 CU   0 0 1
   4 CU   4     3.9279     7.4226    1 CU   0-1 0    3 CU   0 0 0    6 CU   0-1 0
                                     8 CU   0 0 0
   4 CU   8     3.9558     7.4753   12 O    0 0 1   12 O    0 0-1   14 O    0 0-1
                                    14 O    0 0 1   19 O    0 0-1   19 O    0 0 1
                                    20 O    0 0 1   20 O    0 0-1
   4 CU   8     4.3915     8.2987    9 O    0 0 0   11 O    0 0 0   13 O    0 0 0
                                    15 O    0-1 0   21 O    0 0 0   22 O    0-1 0
                                    23 O    0 0 0   24 O    0 0 0

   5 CU   4     1.9639     3.7113    9 O    1 0 0   13 O    0 0 0   21 O    0 0 0
                                    24 O    1 0 0
   5 CU   8     3.2652     6.1704   25 SR   0-1 0   25 SR   0-1-1   28 SR   1 0 0
                                    28 SR   1 0-1   29 SR   0 0 0   29 SR   0 0-1
                                    32 SR   0 0 0   32 SR   0 0-1
   5 CU   2     3.4338     6.4889    5 CU   0 0-1    5 CU   0 0 1
   5 CU   4     3.9278     7.4226    1 CU   1-1 0    3 CU   0 0 0    6 CU   0-1 0
                                     8 CU   1 0 0
   5 CU   8     3.9558     7.4753    9 O    1 0 1    9 O    1 0-1   13 O    0 0 1
                                    13 O    0 0-1   21 O    0 0 1   21 O    0 0-1
                                    24 O    1 0 1   24 O    1 0-1
   5 CU   8     4.3915     8.2987   10 O    0-1 0   12 O    1 0 0   14 O    0 0 0
                                    16 O    1 0 0   17 O    1-1 0   18 O    0 0 0
                                    19 O    0 0 0   20 O    1 0 0

   6 CU   4     1.9639     3.7113   10 O    0 0 0   14 O    0 1 0   21 O    0 1 0
                                    22 O    0 0 0
   6 CU   8     3.2652     6.1704   25 SR   0 0 0   25 SR   0 0-1   26 SR   0 0 0
                                    26 SR   0 0-1   29 SR   0 1 0   29 SR   0 1-1
                                    30 SR   0 0 0   30 SR   0 0-1
   6 CU   2     3.4338     6.4889    6 CU   0 0-1    6 CU   0 0 1
   6 CU   4     3.9279     7.4226    2 CU   0 0 0    4 CU   0 1 0    5 CU   0 1 0
                                     7 CU   0 0 0
   6 CU   8     3.9558     7.4753   10 O    0 0-1   10 O    0 0 1   14 O    0 1 1
                                    14 O    0 1-1   21 O    0 1 1   21 O    0 1-1
                                    22 O    0 0 1   22 O    0 0-1
   6 CU   8     4.3915     8.2987    9 O    1 1 0   11 O    0 0 0   13 O    0 1 0
                                    15 O    0 0 0   17 O    1 0 0   18 O    0 0 0
                                    19 O    0 1 0   20 O    0 1 0

   7 CU   4     1.9639     3.7113   11 O    0 0 0   15 O    0 0 0   22 O    0 0 0
                                    23 O    0 0 0
   7 CU   8     3.2652     6.1704   26 SR   0 0 0   26 SR   0 0-1   27 SR   0 0 0
                                    27 SR   0 0-1   30 SR   0 0 0   30 SR   0 0-1
                                    31 SR   0 0 0   31 SR   0 0-1
   7 CU   2     3.4338     6.4889    7 CU   0 0-1    7 CU   0 0 1
   7 CU   4     3.9279     7.4226    1 CU   0 0 0    3 CU   0 0 0    6 CU   0 0 0
                                     8 CU   0 0 0
   7 CU   8     3.9558     7.4753   11 O    0 0-1   11 O    0 0 1   15 O    0 0 1
                                    15 O    0 0-1   22 O    0 0-1   22 O    0 0 1
                                    23 O    0 0 1   23 O    0 0-1
   7 CU   8     4.3915     8.2987   10 O    0 0 0   12 O    0 0 0   14 O    0 1 0
                                    16 O    0 0 0   17 O    0 0 0   18 O    0 0 0
                                    19 O    0 0 0   20 O    0 1 0

   8 CU   4     1.9639     3.7113   12 O    0 0 0   16 O    0 0 0   23 O    0 0 0
                                    24 O    0 0 0
   8 CU   8     3.2652     6.1704   27 SR   0 0 0   27 SR   0 0-1   28 SR   0 0 0
                                    28 SR   0 0-1   31 SR   0 0 0   31 SR   0 0-1
                                    32 SR  -1 0 0   32 SR  -1 0-1
   8 CU   2     3.4338     6.4889    8 CU   0 0-1    8 CU   0 0 1
   8 CU   4     3.9278     7.4226    2 CU  -1 0 0    4 CU   0 0 0    5 CU  -1 0 0
                                     7 CU   0 0 0
   8 CU   8     3.9558     7.4753   12 O    0 0-1   12 O    0 0 1   16 O    0 0 1
                                    16 O    0 0-1   23 O    0 0-1   23 O    0 0 1
                                    24 O    0 0 1   24 O    0 0-1
   8 CU   8     4.3915     8.2987    9 O    0 0 0   11 O    0 0 0   13 O   -1 0 0
                                    15 O    0 0 0   17 O    0 0 0   18 O   -1 0 0
                                    19 O    0 0 0   20 O    0 0 0

   9 O    2     1.9639     3.7113    1 CU   0-1 0    5 CU  -1 0 0
   9 O    4     2.6086     4.9295   25 SR  -1-1 0   25 SR  -1-1-1   28 SR   0 0 0
                                    28 SR   0 0-1
   9 O    4     2.7774     5.2485   17 O    0-1 0   20 O    0 0 0   21 O   -1 0 0
                                    24 O    0 0 0
   9 O    2     3.4338     6.4889    9 O    0 0-1    9 O    0 0 1
   9 O    4     3.9279     7.4226   10 O   -1-1 0   12 O    0 0 0   13 O   -1 0 0
                                    15 O    0-1 0
   9 O    4     3.9558     7.4753    1 CU   0-1-1    1 CU   0-1 1    5 CU  -1 0-1
                                     5 CU  -1 0 1

  10 O    2     1.9639     3.7113    2 CU   0 0 0    6 CU   0 0 0
  10 O    4     2.6086     4.9295   25 SR   0 0 0   25 SR   0 0-1   26 SR   0 0 0
                                    26 SR   0 0-1
  10 O    4     2.7774     5.2485   17 O    1 0 0   18 O    0 0 0   21 O    0 1 0
                                    22 O    0 0 0
  10 O    2     3.4338     6.4889   10 O    0 0-1   10 O    0 0 1
  10 O    4     3.9279     7.4226    9 O    1 1 0   11 O    0 0 0   14 O    0 1 0
                                    16 O    1 0 0
  10 O    4     3.9558     7.4753    2 CU   0 0-1    2 CU   0 0 1    6 CU   0 0 1
                                     6 CU   0 0-1

  11 O    2     1.9639     3.7113    3 CU   0 0 0    7 CU   0 0 0
  11 O    4     2.6086     4.9295   26 SR   0 0 0   26 SR   0 0-1   27 SR   0 0 0
                                    27 SR   0 0-1
  11 O    4     2.7774     5.2485   18 O    0 0 0   19 O    0 0 0   22 O    0 0 0
                                    23 O    0 0 0
  11 O    2     3.4338     6.4889   11 O    0 0-1   11 O    0 0 1
  11 O    4     3.9278     7.4226   10 O    0 0 0   12 O    0 0 0   13 O    0 0 0
                                    15 O    0 0 0
  11 O    4     3.9558     7.4753    3 CU   0 0-1    3 CU   0 0 1    7 CU   0 0 1
                                     7 CU   0 0-1

  12 O    2     1.9639     3.7113    4 CU   0 0 0    8 CU   0 0 0
  12 O    4     2.6086     4.9295   27 SR   0 0 0   27 SR   0 0-1   28 SR   0 0 0
                                    28 SR   0 0-1
  12 O    4     2.7774     5.2485   19 O    0 0 0   20 O    0 0 0   23 O    0 0 0
                                    24 O    0 0 0
  12 O    2     3.4338     6.4889   12 O    0 0-1   12 O    0 0 1
  12 O    4     3.9279     7.4226    9 O    0 0 0   11 O    0 0 0   14 O    0 0 0
                                    16 O    0 0 0
  12 O    4     3.9558     7.4753    4 CU   0 0-1    4 CU   0 0 1    8 CU   0 0 1
                                     8 CU   0 0-1

  13 O    2     1.9639     3.7113    3 CU   0 0 0    5 CU   0 0 0
  13 O    4     2.6086     4.9295   29 SR   0 0 0   29 SR   0 0-1   32 SR   0 0 0
                                    32 SR   0 0-1
  13 O    4     2.7774     5.2485   18 O    0 0 0   19 O    0 0 0   21 O    0 0 0
                                    24 O    1 0 0
  13 O    2     3.4338     6.4889   13 O    0 0-1   13 O    0 0 1
  13 O    4     3.9278     7.4226    9 O    1 0 0   11 O    0 0 0   14 O    0 0 0
                                    16 O    1 0 0
  13 O    4     3.9558     7.4753    3 CU   0 0 1    3 CU   0 0-1    5 CU   0 0-1
                                     5 CU   0 0 1

  14 O    2     1.9639     3.7113    4 CU   0 0 0    6 CU   0-1 0
  14 O    4     2.6086     4.9295   29 SR   0 0 0   29 SR   0 0-1   30 SR   0-1 0
                                    30 SR   0-1-1
  14 O    4     2.7774     5.2485   19 O    0 0 0   20 O    0 0 0   21 O    0 0 0
                                    22 O    0-1 0
  14 O    2     3.4338     6.4889   14 O    0 0-1   14 O    0 0 1
  14 O    4     3.9278     7.4226   10 O    0-1 0   12 O    0 0 0   13 O    0 0 0
                                    15 O    0-1 0
  14 O    4     3.9558     7.4753    4 CU   0 0 1    4 CU   0 0-1    6 CU   0-1-1
                                     6 CU   0-1 1

  15 O    2     1.9639     3.7113    1 CU   0 0 0    7 CU   0 0 0
  15 O    4     2.6086     4.9295   30 SR   0 0 0   30 SR   0 0-1   31 SR   0 0 0
                                    31 SR   0 0-1
  15 O    4     2.7774     5.2485   17 O    0 0 0   20 O    0 1 0   22 O    0 0 0
                                    23 O    0 0 0
  15 O    2     3.4338     6.4889   15 O    0 0-1   15 O    0 0 1
  15 O    4     3.9278     7.4226    9 O    0 1 0   11 O    0 0 0   14 O    0 1 0
                                    16 O    0 0 0
  15 O    4     3.9558     7.4753    1 CU   0 0 1    1 CU   0 0-1    7 CU   0 0-1
                                     7 CU   0 0 1

  16 O    2     1.9639     3.7113    2 CU  -1 0 0    8 CU   0 0 0
  16 O    4     2.6086     4.9295   31 SR   0 0 0   31 SR   0 0-1   32 SR  -1 0 0
                                    32 SR  -1 0-1
  16 O    4     2.7774     5.2485   17 O    0 0 0   18 O   -1 0 0   23 O    0 0 0
                                    24 O    0 0 0
  16 O    2     3.4338     6.4889   16 O    0 0-1   16 O    0 0 1
  16 O    4     3.9278     7.4226   10 O   -1 0 0   12 O    0 0 0   13 O   -1 0 0
                                    15 O    0 0 0
  16 O    4     3.9558     7.4753    2 CU  -1 0-1    2 CU  -1 0 1    8 CU   0 0-1
                                     8 CU   0 0 1

  17 O    2     1.9639     3.7113    1 CU   0 0 0    2 CU  -1 0 0
  17 O    4     2.6086     4.9295   25 SR  -1 0 0   25 SR  -1 0-1   31 SR   0 0 0
                                    31 SR   0 0-1
  17 O    4     2.7774     5.2485    9 O    0 1 0   10 O   -1 0 0   15 O    0 0 0
                                    16 O    0 0 0
  17 O    2     3.4338     6.4889   17 O    0 0-1   17 O    0 0 1
  17 O    4     3.9278     7.4226   18 O   -1 0 0   20 O    0 1 0   21 O   -1 1 0
                                    23 O    0 0 0
  17 O    4     3.9558     7.4753    1 CU   0 0-1    1 CU   0 0 1    2 CU  -1 0-1
                                     2 CU  -1 0 1

  18 O    2     1.9639     3.7113    2 CU   0 0 0    3 CU   0 0 0
  18 O    4     2.6086     4.9295   26 SR   0 0 0   26 SR   0 0-1   32 SR   0 0 0
                                    32 SR   0 0-1
  18 O    4     2.7774     5.2485   10 O    0 0 0   11 O    0 0 0   13 O    0 0 0
                                    16 O    1 0 0
  18 O    2     3.4338     6.4889   18 O    0 0-1   18 O    0 0 1
  18 O    4     3.9278     7.4226   17 O    1 0 0   19 O    0 0 0   22 O    0 0 0
                                    24 O    1 0 0
  18 O    4     3.9558     7.4753    2 CU   0 0-1    2 CU   0 0 1    3 CU   0 0 1
                                     3 CU   0 0-1

  19 O    2     1.9639     3.7113    3 CU   0 0 0    4 CU   0 0 0
  19 O    4     2.6086     4.9295   27 SR   0 0 0   27 SR   0 0-1   29 SR   0 0 0
                                    29 SR   0 0-1
  19 O    4     2.7774     5.2485   11 O    0 0 0   12 O    0 0 0   13 O    0 0 0
                                    14 O    0 0 0
  19 O    2     3.4338     6.4889   19 O    0 0-1   19 O    0 0 1
  19 O    4     3.9278     7.4226   18 O    0 0 0   20 O    0 0 0   21 O    0 0 0
                                    23 O    0 0 0
  19 O    4     3.9558     7.4753    3 CU   0 0-1    3 CU   0 0 1    4 CU   0 0 1
                                     4 CU   0 0-1

  20 O    2     1.9639     3.7113    1 CU   0-1 0    4 CU   0 0 0
  20 O    4     2.6086     4.9295   28 SR   0 0 0   28 SR   0 0-1   30 SR   0-1 0
                                    30 SR   0-1-1
  20 O    4     2.7774     5.2485    9 O    0 0 0   12 O    0 0 0   14 O    0 0 0
                                    15 O    0-1 0
  20 O    2     3.4338     6.4889   20 O    0 0-1   20 O    0 0 1
  20 O    4     3.9279     7.4226   17 O    0-1 0   19 O    0 0 0   22 O    0-1 0
                                    24 O    0 0 0
  20 O    4     3.9558     7.4753    1 CU   0-1-1    1 CU   0-1 1    4 CU   0 0-1
                                     4 CU   0 0 1

  21 O    2     1.9639     3.7113    5 CU   0 0 0    6 CU   0-1 0
  21 O    4     2.6086     4.9295   25 SR   0-1 0   25 SR   0-1-1   29 SR   0 0 0
                                    29 SR   0 0-1
  21 O    4     2.7774     5.2485    9 O    1 0 0   10 O    0-1 0   13 O    0 0 0
                                    14 O    0 0 0
  21 O    2     3.4338     6.4889   21 O    0 0-1   21 O    0 0 1
  21 O    4     3.9278     7.4226   17 O    1-1 0   19 O    0 0 0   22 O    0-1 0
                                    24 O    1 0 0
  21 O    4     3.9558     7.4753    5 CU   0 0-1    5 CU   0 0 1    6 CU   0-1-1
                                     6 CU   0-1 1

  22 O    2     1.9639     3.7113    6 CU   0 0 0    7 CU   0 0 0
  22 O    4     2.6086     4.9295   26 SR   0 0 0   26 SR   0 0-1   30 SR   0 0 0
                                    30 SR   0 0-1
  22 O    4     2.7774     5.2485   10 O    0 0 0   11 O    0 0 0   14 O    0 1 0
                                    15 O    0 0 0
  22 O    2     3.4338     6.4889   22 O    0 0-1   22 O    0 0 1
  22 O    4     3.9278     7.4226   18 O    0 0 0   20 O    0 1 0   21 O    0 1 0
                                    23 O    0 0 0
  22 O    4     3.9558     7.4753    6 CU   0 0-1    6 CU   0 0 1    7 CU   0 0 1
                                     7 CU   0 0-1

  23 O    2     1.9639     3.7113    7 CU   0 0 0    8 CU   0 0 0
  23 O    4     2.6086     4.9295   27 SR   0 0 0   27 SR   0 0-1   31 SR   0 0 0
                                    31 SR   0 0-1
  23 O    4     2.7774     5.2485   11 O    0 0 0   12 O    0 0 0   15 O    0 0 0
                                    16 O    0 0 0
  23 O    2     3.4338     6.4889   23 O    0 0-1   23 O    0 0 1
  23 O    4     3.9279     7.4226   17 O    0 0 0   19 O    0 0 0   22 O    0 0 0
                                    24 O    0 0 0
  23 O    4     3.9558     7.4753    7 CU   0 0-1    7 CU   0 0 1    8 CU   0 0 1
                                     8 CU   0 0-1

  24 O    2     1.9639     3.7113    5 CU  -1 0 0    8 CU   0 0 0
  24 O    4     2.6086     4.9295   28 SR   0 0 0   28 SR   0 0-1   32 SR  -1 0 0
                                    32 SR  -1 0-1
  24 O    4     2.7774     5.2485    9 O    0 0 0   12 O    0 0 0   13 O   -1 0 0
                                    16 O    0 0 0
  24 O    2     3.4338     6.4889   24 O    0 0-1   24 O    0 0 1
  24 O    4     3.9279     7.4226   18 O   -1 0 0   20 O    0 0 0   21 O   -1 0 0
                                    23 O    0 0 0
  24 O    4     3.9558     7.4753    5 CU  -1 0-1    5 CU  -1 0 1    8 CU   0 0-1
                                     8 CU   0 0 1

  25 SR   8     2.6086     4.9295    9 O    1 1 0    9 O    1 1 1   10 O    0 0 0
                                    10 O    0 0 1   17 O    1 0 0   17 O    1 0 1
                                    21 O    0 1 0   21 O    0 1 1
  25 SR   8     3.2652     6.1704    1 CU   1 0 0    1 CU   1 0 1    2 CU   0 0 0
                                     2 CU   0 0 1    5 CU   0 1 0    5 CU   0 1 1
                                     6 CU   0 0 0    6 CU   0 0 1
  25 SR   2     3.4338     6.4889   25 SR   0 0-1   25 SR   0 0 1
  25 SR   4     3.9278     7.4226   26 SR   0 0 0   28 SR   1 1 0   29 SR   0 1 0
                                    31 SR   1 0 0
  25 SR  16     4.7152     8.9104   13 O    0 1 0   13 O    0 1 1   14 O    0 1 0
                                    14 O    0 1 1   15 O    1 0 0   15 O    1 0 1
                                    16 O    1 0 0   16 O    1 0 1   18 O    0 0 0
                                    18 O    0 0 1   20 O    1 1 0   20 O    1 1 1
                                    22 O    0 0 0   22 O    0 0 1   24 O    1 1 0
                                    24 O    1 1 1
  25 SR   8     5.2172     9.8590   26 SR   0 0 1   26 SR   0 0-1   28 SR   1 1 1
                                    28 SR   1 1-1   29 SR   0 1 1   29 SR   0 1-1
                                    31 SR   1 0 1   31 SR   1 0-1

  26 SR   8     2.6086     4.9295   10 O    0 0 0   10 O    0 0 1   11 O    0 0 0
                                    11 O    0 0 1   18 O    0 0 0   18 O    0 0 1
                                    22 O    0 0 0   22 O    0 0 1
  26 SR   8     3.2652     6.1704    2 CU   0 0 0    2 CU   0 0 1    3 CU   0 0 0
                                     3 CU   0 0 1    6 CU   0 0 0    6 CU   0 0 1
                                     7 CU   0 0 0    7 CU   0 0 1
  26 SR   2     3.4338     6.4889   26 SR   0 0-1   26 SR   0 0 1
  26 SR   4     3.9278     7.4226   25 SR   0 0 0   27 SR   0 0 0   30 SR   0 0 0
                                    32 SR   0 0 0
  26 SR  16     4.7152     8.9104   13 O    0 0 0   13 O    0 0 1   14 O    0 1 0
                                    14 O    0 1 1   15 O    0 0 0   15 O    0 0 1
                                    16 O    1 0 0   16 O    1 0 1   17 O    1 0 0
                                    17 O    1 0 1   19 O    0 0 0   19 O    0 0 1
                                    21 O    0 1 0   21 O    0 1 1   23 O    0 0 0
                                    23 O    0 0 1
  26 SR   8     5.2172     9.8590   25 SR   0 0-1   25 SR   0 0 1   27 SR   0 0 1
                                    27 SR   0 0-1   30 SR   0 0-1   30 SR   0 0 1
                                    32 SR   0 0 1   32 SR   0 0-1

  27 SR   8     2.6086     4.9295   11 O    0 0 0   11 O    0 0 1   12 O    0 0 0
                                    12 O    0 0 1   19 O    0 0 0   19 O    0 0 1
                                    23 O    0 0 0   23 O    0 0 1
  27 SR   8     3.2652     6.1704    3 CU   0 0 0    3 CU   0 0 1    4 CU   0 0 0
                                     4 CU   0 0 1    7 CU   0 0 0    7 CU   0 0 1
                                     8 CU   0 0 0    8 CU   0 0 1
  27 SR   2     3.4338     6.4889   27 SR   0 0-1   27 SR   0 0 1
  27 SR   4     3.9278     7.4226   26 SR   0 0 0   28 SR   0 0 0   29 SR   0 0 0
                                    31 SR   0 0 0
  27 SR  16     4.7152     8.9104   13 O    0 0 0   13 O    0 0 1   14 O    0 0 0
                                    14 O    0 0 1   15 O    0 0 0   15 O    0 0 1
                                    16 O    0 0 0   16 O    0 0 1   18 O    0 0 0
                                    18 O    0 0 1   20 O    0 0 0   20 O    0 0 1
                                    22 O    0 0 0   22 O    0 0 1   24 O    0 0 0
                                    24 O    0 0 1
  27 SR   8     5.2172     9.8590   26 SR   0 0-1   26 SR   0 0 1   28 SR   0 0 1
                                    28 SR   0 0-1   29 SR   0 0 1   29 SR   0 0-1
                                    31 SR   0 0-1   31 SR   0 0 1

  28 SR   8     2.6086     4.9295    9 O    0 0 0    9 O    0 0 1   12 O    0 0 0
                                    12 O    0 0 1   20 O    0 0 0   20 O    0 0 1
                                    24 O    0 0 0   24 O    0 0 1
  28 SR   8     3.2652     6.1704    1 CU   0-1 0    1 CU   0-1 1    4 CU   0 0 0
                                     4 CU   0 0 1    5 CU  -1 0 0    5 CU  -1 0 1
                                     8 CU   0 0 0    8 CU   0 0 1
  28 SR   2     3.4338     6.4889   28 SR   0 0-1   28 SR   0 0 1
  28 SR   4     3.9279     7.4226   25 SR  -1-1 0   27 SR   0 0 0   30 SR   0-1 0
                                    32 SR  -1 0 0
  28 SR  16     4.7152     8.9104   13 O   -1 0 0   13 O   -1 0 1   14 O    0 0 0
                                    14 O    0 0 1   15 O    0-1 0   15 O    0-1 1
                                    16 O    0 0 0   16 O    0 0 1   17 O    0-1 0
                                    17 O    0-1 1   19 O    0 0 0   19 O    0 0 1
                                    21 O   -1 0 0   21 O   -1 0 1   23 O    0 0 0
                                    23 O    0 0 1
  28 SR   8     5.2172     9.8590   25 SR  -1-1-1   25 SR  -1-1 1   27 SR   0 0-1
                                    27 SR   0 0 1   30 SR   0-1-1   30 SR   0-1 1
                                    32 SR  -1 0-1   32 SR  -1 0 1

  29 SR   8     2.6086     4.9295   13 O    0 0 0   13 O    0 0 1   14 O    0 0 0
                                    14 O    0 0 1   19 O    0 0 0   19 O    0 0 1
                                    21 O    0 0 0   21 O    0 0 1
  29 SR   8     3.2652     6.1704    3 CU   0 0 0    3 CU   0 0 1    4 CU   0 0 0
                                     4 CU   0 0 1    5 CU   0 0 0    5 CU   0 0 1
                                     6 CU   0-1 0    6 CU   0-1 1
  29 SR   2     3.4338     6.4889   29 SR   0 0-1   29 SR   0 0 1
  29 SR   4     3.9278     7.4226   25 SR   0-1 0   27 SR   0 0 0   30 SR   0-1 0
                                    32 SR   0 0 0
  29 SR  16     4.7152     8.9104    9 O    1 0 0    9 O    1 0 1   10 O    0-1 0
                                    10 O    0-1 1   11 O    0 0 0   11 O    0 0 1
                                    12 O    0 0 0   12 O    0 0 1   18 O    0 0 0
                                    18 O    0 0 1   20 O    0 0 0   20 O    0 0 1
                                    22 O    0-1 0   22 O    0-1 1   24 O    1 0 0
                                    24 O    1 0 1
  29 SR   8     5.2172     9.8590   25 SR   0-1-1   25 SR   0-1 1   27 SR   0 0-1
                                    27 SR   0 0 1   30 SR   0-1-1   30 SR   0-1 1
                                    32 SR   0 0-1   32 SR   0 0 1

  30 SR   8     2.6086     4.9295   14 O    0 1 0   14 O    0 1 1   15 O    0 0 0
                                    15 O    0 0 1   20 O    0 1 0   20 O    0 1 1
                                    22 O    0 0 0   22 O    0 0 1
  30 SR   8     3.2652     6.1704    1 CU   0 0 0    1 CU   0 0 1    4 CU   0 1 0
                                     4 CU   0 1 1    6 CU   0 0 0    6 CU   0 0 1
                                     7 CU   0 0 0    7 CU   0 0 1
  30 SR   2     3.4338     6.4889   30 SR   0 0-1   30 SR   0 0 1
  30 SR   4     3.9278     7.4226   26 SR   0 0 0   28 SR   0 1 0   29 SR   0 1 0
                                    31 SR   0 0 0
  30 SR  16     4.7152     8.9104    9 O    0 1 0    9 O    0 1 1   10 O    0 0 0
                                    10 O    0 0 1   11 O    0 0 0   11 O    0 0 1
                                    12 O    0 1 0   12 O    0 1 1   17 O    0 0 0
                                    17 O    0 0 1   19 O    0 1 0   19 O    0 1 1
                                    21 O    0 1 0   21 O    0 1 1   23 O    0 0 0
                                    23 O    0 0 1
  30 SR   8     5.2172     9.8590   26 SR   0 0 1   26 SR   0 0-1   28 SR   0 1 1
                                    28 SR   0 1-1   29 SR   0 1 1   29 SR   0 1-1
                                    31 SR   0 0 1   31 SR   0 0-1

  31 SR   8     2.6086     4.9295   15 O    0 0 0   15 O    0 0 1   16 O    0 0 0
                                    16 O    0 0 1   17 O    0 0 0   17 O    0 0 1
                                    23 O    0 0 0   23 O    0 0 1
  31 SR   8     3.2652     6.1704    1 CU   0 0 0    1 CU   0 0 1    2 CU  -1 0 0
                                     2 CU  -1 0 1    7 CU   0 0 0    7 CU   0 0 1
                                     8 CU   0 0 0    8 CU   0 0 1
  31 SR   2     3.4338     6.4889   31 SR   0 0-1   31 SR   0 0 1
  31 SR   4     3.9279     7.4226   25 SR  -1 0 0   27 SR   0 0 0   30 SR   0 0 0
                                    32 SR  -1 0 0
  31 SR  16     4.7152     8.9104    9 O    0 1 0    9 O    0 1 1   10 O   -1 0 0
                                    10 O   -1 0 1   11 O    0 0 0   11 O    0 0 1
                                    12 O    0 0 0   12 O    0 0 1   18 O   -1 0 0
                                    18 O   -1 0 1   20 O    0 1 0   20 O    0 1 1
                                    22 O    0 0 0   22 O    0 0 1   24 O    0 0 0
                                    24 O    0 0 1
  31 SR   8     5.2172     9.8590   25 SR  -1 0-1   25 SR  -1 0 1   27 SR   0 0 1
                                    27 SR   0 0-1   30 SR   0 0-1   30 SR   0 0 1
                                    32 SR  -1 0-1   32 SR  -1 0 1

  32 SR   8     2.6086     4.9295   13 O    0 0 0   13 O    0 0 1   16 O    1 0 0
                                    16 O    1 0 1   18 O    0 0 0   18 O    0 0 1
                                    24 O    1 0 0   24 O    1 0 1
  32 SR   8     3.2652     6.1704    2 CU   0 0 0    2 CU   0 0 1    3 CU   0 0 0
                                     3 CU   0 0 1    5 CU   0 0 0    5 CU   0 0 1
                                     8 CU   1 0 0    8 CU   1 0 1
  32 SR   2     3.4338     6.4889   32 SR   0 0-1   32 SR   0 0 1
  32 SR   4     3.9278     7.4226   26 SR   0 0 0   28 SR   1 0 0   29 SR   0 0 0
                                    31 SR   1 0 0
  32 SR  16     4.7152     8.9104    9 O    1 0 0    9 O    1 0 1   10 O    0 0 0
                                    10 O    0 0 1   11 O    0 0 0   11 O    0 0 1
                                    12 O    1 0 0   12 O    1 0 1   17 O    1 0 0
                                    17 O    1 0 1   19 O    0 0 0   19 O    0 0 1
                                    21 O    0 0 0   21 O    0 0 1   23 O    1 0 0
                                    23 O    1 0 1
  32 SR   8     5.2172     9.8590   26 SR   0 0-1   26 SR   0 0 1   28 SR   1 0 1
                                    28 SR   1 0-1   29 SR   0 0 1   29 SR   0 0-1
                                    31 SR   1 0 1   31 SR   1 0-1


 SYMMETRY ALLOWED INTERNAL DEGREE(S) OF FREEDOM:  62
 TTTTTTTTTTTTTTTTTTTTTTTTTTTTTT SYMM        TELAPSE        1.84 TCPU        0.59
 TTTTTTTTTTTTTTTTTTTTTTTTTTTTTT INT_SCREEN  TELAPSE        1.85 TCPU        0.60
 INFORMATION **** EXCBUF **** EXCH. BIPO BUFFER: WORDS USED =     8273970

 DFT PARAMETERS

     ATOM       ELECTRONS   NET CHARGE   R(ANGSTROM)
   1 229  CU     17.2500      1.7500     0.74000000
   9 208  O       8.0000     -2.0000     1.40000000
  25 238  SR      0.0000      2.0000     1.18000000
[golub219:78875] 19 more processes have sent help message help-mpi-btl-base.txt / btl:no-nics
[golub219:78875] Set MCA parameter "orte_base_help_aggregate" to 0 to see all help / error messages

 SIZE OF GRID=     361552
 TTTTTTTTTTTTTTTTTTTTTTTTTTTTTT MAKE_GRID2  TELAPSE        5.81 TCPU        4.56
 BECKE WEIGHT FUNCTION
 RADSAFE =     2.00
 TOLERANCES - DENSITY:10**- 6; POTENTIAL:10**- 9; GRID WGT:10**-14

 RADIAL INTEGRATION  - INTERVALS (POINTS,UPPER LIMIT):            1( 75,  4.0*R)

 ANGULAR INTEGRATION - INTERVALS (ACCURACY LEVEL [N. POINTS] UPPER LIMIT):
  1(  4[  86]   0.2)  2(  8[ 194]   0.5)  3( 12[ 350]   0.9)  4( 16[ 974]   3.5)
  5( 12[ 350]9999.0)
 TTTTTTTTTTTTTTTTTTTTTTTTTTTTTT INT_CALC    TELAPSE        5.86 TCPU        4.61
 EEEEEEEEEE INT_CALC TERMINATION  DATE 29 04 2018 TIME 22:55:57.2

 *******************************************************************************
 Generated by CrystalWriter                                                      
 CRYSTAL - SCF - TYPE OF CALCULATION :  UNRESTRICTED OPEN SHELL
 *******************************************************************************

 CAPPA:IS1  5;IS2  5;IS3  4; K PTS MONK NET  39; SYMMOPS:K SPACE   4;G SPACE   2

 TTTTTTTTTTTTTTTTTTTTTTTTTTTTTT SDIK        TELAPSE        7.38 TCPU        5.53

 AAAAAAAAAAAAAAAAAAAAAAAAAAAAAAAAAAAAAAAAAAAAAAAAAAAAAAAAAAAAAAAAAAAAAAAAAAAAAAA
         ATOMIC WAVEFUNCTION(S)


 NUCLEAR CHARGE 19.0  SYMMETRY SPECIES            S    P    D
 N. ELECTRONS   17.2  NUMBER OF PRIMITIVE GTOS   14    9    7
                      NUMBER OF CONTRACTED GTOS   4    3    3
                      NUMBER OF CLOSED SHELLS     1    1    0
                      OPEN SHELL OCCUPATION       0    0    9

[...]
 NUMERICALLY INTEGRATED DENSITY    133.9995789517    131.9995513350
 TTTTTTTTTTTTTTTTTTTTTTTTTTTTTT NUMDFT      TELAPSE    79000.14 TCPU    74304.09
 CYC 118 ETOT(AU) -1.841855041459E+03 DETOT  1.06E-06 tst  2.87E-06 PX  4.39E-03
 CYCLE118 WAVE FUNCTION SAVED IN FORTRAN UNIT 79
 TTTTTTTTTTTTTTTTTTTTTTTTTTTTTT DIIS        TELAPSE    79041.33 TCPU    74338.75
 DIIS TEST: 0.10627E-03 AT SCF   CYCLE 118 - DIIS ACTIVE - HISTORY:   118 CYCLES
 TTTTTTTTTTTTTTTTTTTTTTTTTTTTTT FDIK        TELAPSE    79084.29 TCPU    74346.53
 SPIN LOCKING: NO ENERGY GAP COMPUTED
 TTTTTTTTTTTTTTTTTTTTTTTTTTTTTT PDIG        TELAPSE    79095.31 TCPU    74357.56
 CHARGE NORMALIZATION FACTOR   1.00000000
 TOTAL ATOMIC CHARGES:
  18.1520788  18.1215791  18.1294200  18.1357507  18.0806039  18.1169796
  18.2012410  18.1169441   7.4758148   7.4673360   7.4652860   7.4687008
   7.4755767   7.4676949   7.4783675   7.4664116   7.4638827   7.4724625
   7.4702443   7.4609477   7.4638451   7.4526831   7.4526620   7.4638999
   0.1863120   0.1840466   0.1836465   0.1860135   0.1863614   0.1830716
   0.1834683   0.1866671
 SUMMED SPIN DENSITY           2.00000000
 TOTAL ATOMIC SPINS  :
   0.3648017   0.4437402   0.4338357   0.3952798   0.5839663  -0.4442295
  -0.0252465  -0.4442341   0.1105319  -0.0017529   0.0931757  -0.0127077
   0.1091315  -0.0105004   0.0694502   0.0003165   0.1239785   0.1105702
   0.1141137   0.1288586   0.0361956  -0.1030874  -0.1030760   0.0360790
  -0.0017626  -0.0006098  -0.0005979  -0.0017549  -0.0016336  -0.0005917
  -0.0005886  -0.0016514
 TTTTTTTTTTTTTTTTTTTTTTTTTTTTTT MOQGAD      TELAPSE    79095.43 TCPU    74357.69
 TTTTTTTTTTTTTTTTTTTTTTTTTTTTTT SHELLXN     TELAPSE    79646.47 TCPU    74898.89
 TTTTTTTTTTTTTTTTTTTTTTTTTTTTTT MONMO3      TELAPSE    79685.85 TCPU    74937.92
 NUMERICALLY INTEGRATED DENSITY    133.9995789538    131.9995513315
 TTTTTTTTTTTTTTTTTTTTTTTTTTTTTT NUMDFT      TELAPSE    79694.82 TCPU    74946.88
 CYC 119 ETOT(AU) -1.841855041703E+03 DETOT -2.44E-07 tst  2.06E-09 PX  2.08E-04
 CYCLE119 WAVE FUNCTION SAVED IN FORTRAN UNIT 79
 TTTTTTTTTTTTTTTTTTTTTTTTTTTTTT DIIS        TELAPSE    79747.88 TCPU    74999.15
 DIIS TEST: 0.10755E-03 AT SCF   CYCLE 119 - DIIS ACTIVE - HISTORY:   119 CYCLES
 TTTTTTTTTTTTTTTTTTTTTTTTTTTTTT FDIK        TELAPSE    79790.86 TCPU    75009.93
 SPIN LOCKING: NO ENERGY GAP COMPUTED
 TTTTTTTTTTTTTTTTTTTTTTTTTTTTTT PDIG        TELAPSE    79795.47 TCPU    75012.34
 CHARGE NORMALIZATION FACTOR   1.00000000
 TOTAL ATOMIC CHARGES:
  18.1516805  18.1207622  18.1295725  18.1367125  18.0805487  18.1170651
  18.2012589  18.1170043   7.4758102   7.4672361   7.4654703   7.4688140
   7.4755885   7.4678273   7.4781769   7.4663455   7.4641602   7.4724620
   7.4699505   7.4608624   7.4638450   7.4526843   7.4526653   7.4639085
   0.1863402   0.1840675   0.1836092   0.1859971   0.1863373   0.1830517
   0.1835018   0.1866834
 SUMMED SPIN DENSITY           2.00000000
 TOTAL ATOMIC SPINS  :
   0.3660645   0.4466468   0.4333875   0.3918532   0.5841619  -0.4439784
  -0.0261964  -0.4440062   0.1105238  -0.0010173   0.0927839  -0.0133773
   0.1091513  -0.0112118   0.0697079   0.0009864   0.1235160   0.1105508
   0.1145691   0.1289997   0.0362987  -0.1032037  -0.1031858   0.0361623
  -0.0017635  -0.0006098  -0.0005936  -0.0017516  -0.0016344  -0.0005894
  -0.0005884  -0.0016563
 TTTTTTTTTTTTTTTTTTTTTTTTTTTTTT MOQGAD      TELAPSE    79795.52 TCPU    75012.39
 TTTTTTTTTTTTTTTTTTTTTTTTTTTTTT SHELLXN     TELAPSE    80347.46 TCPU    75553.25
 TTTTTTTTTTTTTTTTTTTTTTTTTTTTTT MONMO3      TELAPSE    80386.14 TCPU    75591.52
 NUMERICALLY INTEGRATED DENSITY    133.9995789363    131.9995513409
 TTTTTTTTTTTTTTTTTTTTTTTTTTTTTT NUMDFT      TELAPSE    80395.63 TCPU    75600.84
 CYC 120 ETOT(AU) -1.841855040165E+03 DETOT  1.54E-06 tst  2.82E-06 PX  4.31E-03
 CYCLE120 WAVE FUNCTION SAVED IN FORTRAN UNIT 79
 TTTTTTTTTTTTTTTTTTTTTTTTTTTTTT DIIS        TELAPSE    80436.03 TCPU    75635.46
 DIIS TEST: 0.10555E-03 AT SCF   CYCLE 120 - DIIS ACTIVE - HISTORY:   120 CYCLES
 TTTTTTTTTTTTTTTTTTTTTTTTTTTTTT FDIK        TELAPSE    80482.37 TCPU    75646.85
 SPIN LOCKING: NO ENERGY GAP COMPUTED
 TTTTTTTTTTTTTTTTTTTTTTTTTTTTTT PDIG        TELAPSE    80487.13 TCPU    75651.54
 CHARGE NORMALIZATION FACTOR   1.00000000
 TOTAL ATOMIC CHARGES:
  18.1516569  18.1207077  18.1295927  18.1367774  18.0805493  18.1170592
  18.2012608  18.1170007   7.4758178   7.4672430   7.4654691   7.4687970
   7.4755870   7.4678133   7.4781757   7.4663525   7.4641793   7.4724718
   7.4699347   7.4608615   7.4638444   7.4526858   7.4526669   7.4639063
   0.1863382   0.1840662   0.1836110   0.1859977   0.1863392   0.1830527
   0.1835008   0.1866836
 SUMMED SPIN DENSITY           2.00000000
 TOTAL ATOMIC SPINS  :
   0.3660918   0.4466958   0.4333324   0.3917726   0.5841481  -0.4440089
  -0.0260710  -0.4440382   0.1105210  -0.0009929   0.0927851  -0.0134092
   0.1091497  -0.0112469   0.0697395   0.0010076   0.1234936   0.1105421
   0.1145853   0.1289986   0.0362924  -0.1031882  -0.1031680   0.0361546
  -0.0017621  -0.0006092  -0.0005958  -0.0017526  -0.0016345  -0.0005908
  -0.0005877  -0.0016544
 TTTTTTTTTTTTTTTTTTTTTTTTTTTTTT MOQGAD      TELAPSE    80487.23 TCPU    75651.62
 TTTTTTTTTTTTTTTTTTTTTTTTTTTTTT SHELLXN     TELAPSE    81041.48 TCPU    76192.57
 TTTTTTTTTTTTTTTTTTTTTTTTTTTTTT MONMO3      TELAPSE    81081.66 TCPU    76232.76
 NUMERICALLY INTEGRATED DENSITY    133.9995789378    131.9995513378
 TTTTTTTTTTTTTTTTTTTTTTTTTTTTTT NUMDFT      TELAPSE    81091.11 TCPU    76242.03
 CYC 121 ETOT(AU) -1.841855040320E+03 DETOT -1.55E-07 tst  1.87E-09 PX  1.44E-04
 CYCLE121 WAVE FUNCTION SAVED IN FORTRAN UNIT 79
 TTTTTTTTTTTTTTTTTTTTTTTTTTTTTT DIIS        TELAPSE    81136.54 TCPU    76281.78
 DIIS TEST: 0.10686E-03 AT SCF   CYCLE 121 - DIIS ACTIVE - HISTORY:   121 CYCLES
 TTTTTTTTTTTTTTTTTTTTTTTTTTTTTT FDIK        TELAPSE    81182.84 TCPU    76292.21
 SPIN LOCKING: NO ENERGY GAP COMPUTED
 TTTTTTTTTTTTTTTTTTTTTTTTTTTTTT PDIG        TELAPSE    81186.85 TCPU    76293.95
 CHARGE NORMALIZATION FACTOR   1.00000000
 TOTAL ATOMIC CHARGES:
  18.1503164  18.1186475  18.1301612  18.1393083  18.0803999  18.1172785
  18.2012866  18.1172305   7.4757999   7.4669986   7.4660886   7.4690819
   7.4756299   7.4681827   7.4775261   7.4661957   7.4649691   7.4723655
   7.4690731   7.4607429   7.4638438   7.4526866   7.4526750   7.4639179
   0.1864115   0.1841081   0.1835126   0.1859681   0.1862698   0.1830033
   0.1835958   0.1867250
 SUMMED SPIN DENSITY           2.00000000
 TOTAL ATOMIC SPINS  :
   0.3703550   0.4539783   0.4316470   0.3827863   0.5847597  -0.4432474
  -0.0289572  -0.4433324   0.1104803   0.0009114   0.0914868  -0.0150981
   0.1092148  -0.0130935   0.0706492   0.0026953   0.1221837   0.1106428
   0.1159419   0.1291950   0.0366037  -0.1035412  -0.1035008   0.0364151
  -0.0017624  -0.0006074  -0.0005844  -0.0017423  -0.0016388  -0.0005837
  -0.0005873  -0.0016694
 TTTTTTTTTTTTTTTTTTTTTTTTTTTTTT MOQGAD      TELAPSE    81186.89 TCPU    76294.00
 TTTTTTTTTTTTTTTTTTTTTTTTTTTTTT SHELLXN     TELAPSE    81740.35 TCPU    76835.09
 TTTTTTTTTTTTTTTTTTTTTTTTTTTTTT MONMO3      TELAPSE    81782.07 TCPU    76875.91
 NUMERICALLY INTEGRATED DENSITY    133.9995788833    131.9995513646
 TTTTTTTTTTTTTTTTTTTTTTTTTTTTTT NUMDFT      TELAPSE    81791.11 TCPU    76884.96
 CYC 122 ETOT(AU) -1.841855035321E+03 DETOT  5.00E-06 tst  2.06E-05 PX  1.13E-02
 CYCLE122 WAVE FUNCTION SAVED IN FORTRAN UNIT 79
 TTTTTTTTTTTTTTTTTTTTTTTTTTTTTT DIIS        TELAPSE    81837.22 TCPU    76923.38
 DIIS TEST: 0.10546E-03 AT SCF   CYCLE 122 - DIIS ACTIVE - HISTORY:   122 CYCLES
 TTTTTTTTTTTTTTTTTTTTTTTTTTTTTT FDIK        TELAPSE    81880.04 TCPU    76936.10
 SPIN LOCKING: NO ENERGY GAP COMPUTED
 TTTTTTTTTTTTTTTTTTTTTTTTTTTTTT PDIG        TELAPSE    81887.23 TCPU    76940.98
 CHARGE NORMALIZATION FACTOR   1.00000000
 TOTAL ATOMIC CHARGES:
  18.1502562  18.1185478  18.1301817  18.1394184  18.0803827  18.1172874
  18.2012817  18.1172386   7.4758261   7.4670293   7.4660762   7.4690407
   7.4756233   7.4681444   7.4775516   7.4662268   7.4649946   7.4723861
   7.4690356   7.4607370   7.4638482   7.4526891   7.4526776   7.4639226
   0.1864049   0.1841049   0.1835192   0.1859673   0.1862773   0.1830071
   0.1835897   0.1867257
 SUMMED SPIN DENSITY           2.00000000
 TOTAL ATOMIC SPINS  :
   0.3703464   0.4539537   0.4316467   0.3828058   0.5847508  -0.4432559
  -0.0289310  -0.4433440   0.1104902   0.0009474   0.0914719  -0.0151261
   0.1092101  -0.0131236   0.0706561   0.0027287   0.1221610   0.1106286
   0.1159679   0.1292006   0.0366118  -0.1035448  -0.1034991   0.0364212
  -0.0017598  -0.0006055  -0.0005893  -0.0017461  -0.0016387  -0.0005870
  -0.0005845  -0.0016633
 TTTTTTTTTTTTTTTTTTTTTTTTTTTTTT MOQGAD      TELAPSE    81887.36 TCPU    76941.11
 TTTTTTTTTTTTTTTTTTTTTTTTTTTTTT SHELLXN     TELAPSE    82435.16 TCPU    77482.16
 TTTTTTTTTTTTTTTTTTTTTTTTTTTTTT MONMO3      TELAPSE    82476.07 TCPU    77523.10
 NUMERICALLY INTEGRATED DENSITY    133.9995788840    131.9995513638
 TTTTTTTTTTTTTTTTTTTTTTTTTTTTTT NUMDFT      TELAPSE    82485.07 TCPU    77532.10
 CYC 123 ETOT(AU) -1.841855035484E+03 DETOT -1.63E-07 tst  4.05E-10 PX  1.10E-04
 CYCLE123 WAVE FUNCTION SAVED IN FORTRAN UNIT 79
 TTTTTTTTTTTTTTTTTTTTTTTTTTTTTT DIIS        TELAPSE    82527.84 TCPU    77564.96
 DIIS TEST: 0.10661E-03 AT SCF   CYCLE 123 - DIIS ACTIVE - HISTORY:   123 CYCLES
 TTTTTTTTTTTTTTTTTTTTTTTTTTTTTT FDIK        TELAPSE    82567.60 TCPU    77572.36
 SPIN LOCKING: NO ENERGY GAP COMPUTED
 TTTTTTTTTTTTTTTTTTTTTTTTTTTTTT PDIG        TELAPSE    82571.71 TCPU    77575.52
 CHARGE NORMALIZATION FACTOR   1.00000000
 TOTAL ATOMIC CHARGES:
  18.1456110  18.1130232  18.1322353  18.1466938  18.0800779  18.1179895
  18.2015967  18.1179155   7.4757369   7.4661861   7.4679124   7.4696641
   7.4757624   7.4690534   7.4754433   7.4656719   7.4674206   7.4722143
   7.4662649   7.4604741   7.4638258   7.4528329   7.4528266   7.4639125
   0.1866431   0.1842439   0.1832138   0.1858742   0.1860669   0.1828698
   0.1838926   0.1868502
 SUMMED SPIN DENSITY           2.00000000
 TOTAL ATOMIC SPINS  :
   0.3835421   0.4759329   0.4252802   0.3544248   0.5860077  -0.4417694
  -0.0331086  -0.4420089   0.1102926   0.0066168   0.0881089  -0.0207637
   0.1093851  -0.0192972   0.0741041   0.0077476   0.1179891   0.1106752
   0.1201217   0.1295706   0.0372123  -0.1039643  -0.1038493   0.0369177
  -0.0017489  -0.0006116  -0.0005722  -0.0017111  -0.0016518  -0.0005770
  -0.0005916  -0.0017038
 TTTTTTTTTTTTTTTTTTTTTTTTTTTTTT MOQGAD      TELAPSE    82571.76 TCPU    77575.56
 TTTTTTTTTTTTTTTTTTTTTTTTTTTTTT SHELLXN     TELAPSE    83119.19 TCPU    78116.66
 TTTTTTTTTTTTTTTTTTTTTTTTTTTTTT MONMO3      TELAPSE    83160.53 TCPU    78157.01
 NUMERICALLY INTEGRATED DENSITY    133.9995786738    131.9995513064
 TTTTTTTTTTTTTTTTTTTTTTTTTTTTTT NUMDFT      TELAPSE    83169.49 TCPU    78165.96
 CYC 124 ETOT(AU) -1.841855026462E+03 DETOT  9.02E-06 tst  2.07E-04 PX  3.60E-02
 CYCLE124 WAVE FUNCTION SAVED IN FORTRAN UNIT 79
 TTTTTTTTTTTTTTTTTTTTTTTTTTTTTT DIIS        TELAPSE    83213.22 TCPU    78196.33
 DIIS TEST: 0.11033E-03 AT SCF   CYCLE 124 - DIIS ACTIVE - HISTORY:   124 CYCLES
 TTTTTTTTTTTTTTTTTTTTTTTTTTTTTT FDIK        TELAPSE    83260.39 TCPU    78209.59
 SPIN LOCKING: NO ENERGY GAP COMPUTED
 TTTTTTTTTTTTTTTTTTTTTTTTTTTTTT PDIG        TELAPSE    83266.10 TCPU    78212.72
 CHARGE NORMALIZATION FACTOR   1.00000000
 TOTAL ATOMIC CHARGES:
  18.1454870  18.1128367  18.1323137  18.1468850  18.0800472  18.1179829
  18.2015740  18.1179046   7.4758268   7.4662950   7.4678691   7.4695560
   7.4757142   7.4689367   7.4755342   7.4657783   7.4674656   7.4722348
   7.4662220   7.4604750   7.4638295   7.4528311   7.4528213   7.4639124
   0.1866240   0.1842377   0.1832321   0.1858747   0.1860888   0.1828798
   0.1838748   0.1868552
 SUMMED SPIN DENSITY           2.00000000
 TOTAL ATOMIC SPINS  :
   0.3833999   0.4754676   0.4252973   0.3549354   0.5859805  -0.4418256
  -0.0330102  -0.4420668   0.1103095   0.0066522   0.0880887  -0.0207621
   0.1093572  -0.0193041   0.0741366   0.0077772   0.1179844   0.1106746
   0.1201423   0.1295766   0.0372226  -0.1039567  -0.1038436   0.0369236
  -0.0017499  -0.0006054  -0.0005779  -0.0017211  -0.0016466  -0.0005825
  -0.0005848  -0.0016889
 TTTTTTTTTTTTTTTTTTTTTTTTTTTTTT MOQGAD      TELAPSE    83266.15 TCPU    78212.77
 TTTTTTTTTTTTTTTTTTTTTTTTTTTTTT SHELLXN     TELAPSE    83816.44 TCPU    78754.26
 TTTTTTTTTTTTTTTTTTTTTTTTTTTTTT MONMO3      TELAPSE    83855.88 TCPU    78793.53
 NUMERICALLY INTEGRATED DENSITY    133.9995786827    131.9995513113
 TTTTTTTTTTTTTTTTTTTTTTTTTTTTTT NUMDFT      TELAPSE    83864.89 TCPU    78802.54
 CYC 125 ETOT(AU) -1.841855029216E+03 DETOT -2.75E-06 tst  4.92E-08 PX  4.03E-04
 CYCLE125 WAVE FUNCTION SAVED IN FORTRAN UNIT 79
 TTTTTTTTTTTTTTTTTTTTTTTTTTTTTT DIIS        TELAPSE    83906.95 TCPU    78835.05
 DIIS TEST: 0.10049E-03 AT SCF   CYCLE 125 - DIIS ACTIVE - HISTORY:   125 CYCLES
 TTTTTTTTTTTTTTTTTTTTTTTTTTTTTT FDIK        TELAPSE    83947.23 TCPU    78843.54
 SPIN LOCKING: NO ENERGY GAP COMPUTED
 TTTTTTTTTTTTTTTTTTTTTTTTTTTTTT PDIG        TELAPSE    83952.16 TCPU    78847.79
 CHARGE NORMALIZATION FACTOR   1.00000000
 TOTAL ATOMIC CHARGES:
  18.1452280  18.1124461  18.1322145  18.1473869  18.0800089  18.1181064
  18.2017309  18.1180213   7.4758171   7.4662095   7.4678462   7.4695974
   7.4757125   7.4689752   7.4755492   7.4656950   7.4676101   7.4723741
   7.4660525   7.4602623   7.4638316   7.4528676   7.4528533   7.4639156
   0.1866479   0.1842750   0.1832047   0.1858523   0.1860676   0.1828505
   0.1839068   0.1868831
 SUMMED SPIN DENSITY           2.00000000
 TOTAL ATOMIC SPINS  :
   0.3834858   0.4782953   0.4254916   0.3516804   0.5859939  -0.4417763
  -0.0328233  -0.4420259   0.1103194   0.0073326   0.0881680  -0.0215634
   0.1093536  -0.0200870   0.0741280   0.0084557   0.1176765   0.1103948
   0.1203453   0.1299138   0.0372173  -0.1039206  -0.1038011   0.0369023
  -0.0017512  -0.0006090  -0.0005757  -0.0017190  -0.0016428  -0.0005820
  -0.0005864  -0.0016906
 TTTTTTTTTTTTTTTTTTTTTTTTTTTTTT MOQGAD      TELAPSE    83952.20 TCPU    78847.83
 TTTTTTTTTTTTTTTTTTTTTTTTTTTTTT SHELLXN     TELAPSE    84505.91 TCPU    79392.77
 TTTTTTTTTTTTTTTTTTTTTTTTTTTTTT MONMO3      TELAPSE    84541.07 TCPU    79427.65
 NUMERICALLY INTEGRATED DENSITY    133.9995786472    131.9995512891
 TTTTTTTTTTTTTTTTTTTTTTTTTTTTTT NUMDFT      TELAPSE    84550.03 TCPU    79436.61
 CYC 126 ETOT(AU) -1.841855027794E+03 DETOT  1.42E-06 tst  2.41E-06 PX  4.20E-03
 CYCLE126 WAVE FUNCTION SAVED IN FORTRAN UNIT 79
 TTTTTTTTTTTTTTTTTTTTTTTTTTTTTT DIIS        TELAPSE    84601.26 TCPU    79476.86
 DIIS TEST: 0.10415E-03 AT SCF   CYCLE 126 - DIIS ACTIVE - HISTORY:   126 CYCLES
 TTTTTTTTTTTTTTTTTTTTTTTTTTTTTT FDIK        TELAPSE    84645.39 TCPU    79490.87
 SPIN LOCKING: NO ENERGY GAP COMPUTED
 TTTTTTTTTTTTTTTTTTTTTTTTTTTTTT PDIG        TELAPSE    84652.38 TCPU    79495.37
 CHARGE NORMALIZATION FACTOR   1.00000000
 TOTAL ATOMIC CHARGES:
  18.1452233  18.1124053  18.1322166  18.1474245  18.0800107  18.1181062
  18.2017287  18.1180210   7.4758187   7.4662240   7.4678509   7.4695847
   7.4757119   7.4689631   7.4755467   7.4657090   7.4676162   7.4723838
   7.4660400   7.4602596   7.4638286   7.4528687   7.4528541   7.4639140
   0.1866471   0.1842735   0.1832065   0.1858539   0.1860689   0.1828523
   0.1839054   0.1868818
 SUMMED SPIN DENSITY           2.00000000
 TOTAL ATOMIC SPINS  :
   0.3834948   0.4782852   0.4254818   0.3516822   0.5859956  -0.4417785
  -0.0328183  -0.4420287   0.1103165   0.0073481   0.0881665  -0.0215791
   0.1093508  -0.0201039   0.0741331   0.0084722   0.1176694   0.1103912
   0.1203552   0.1299184   0.0372180  -0.1039183  -0.1037979   0.0369012
  -0.0017504  -0.0006073  -0.0005767  -0.0017196  -0.0016438  -0.0005823
  -0.0005853  -0.0016898
 TTTTTTTTTTTTTTTTTTTTTTTTTTTTTT MOQGAD      TELAPSE    84652.43 TCPU    79495.42
 TTTTTTTTTTTTTTTTTTTTTTTTTTTTTT SHELLXN     TELAPSE    85204.19 TCPU    80036.53
 TTTTTTTTTTTTTTTTTTTTTTTTTTTTTT MONMO3      TELAPSE    85245.91 TCPU    80077.99
 NUMERICALLY INTEGRATED DENSITY    133.9995786474    131.9995512890
 TTTTTTTTTTTTTTTTTTTTTTTTTTTTTT NUMDFT      TELAPSE    85255.42 TCPU    80087.50
 CYC 127 ETOT(AU) -1.841855027676E+03 DETOT  1.17E-07 tst  5.81E-11 PX  3.44E-05
 CYCLE127 WAVE FUNCTION SAVED IN FORTRAN UNIT 79
 TTTTTTTTTTTTTTTTTTTTTTTTTTTTTT DIIS        TELAPSE    85301.21 TCPU    80129.30
 DIIS TEST: 0.10526E-03 AT SCF   CYCLE 127 - DIIS ACTIVE - HISTORY:   127 CYCLES
 TTTTTTTTTTTTTTTTTTTTTTTTTTTTTT FDIK        TELAPSE    85343.79 TCPU    80143.76
 SPIN LOCKING: NO ENERGY GAP COMPUTED
 TTTTTTTTTTTTTTTTTTTTTTTTTTTTTT PDIG        TELAPSE    85347.41 TCPU    80145.86
 CHARGE NORMALIZATION FACTOR   1.00000000
 TOTAL ATOMIC CHARGES:
  18.1452497  18.1124220  18.1321789  18.1473923  18.0800047  18.1181197
  18.2017206  18.1180333   7.4758189   7.4662328   7.4678238   7.4695906
   7.4757116   7.4689650   7.4755836   7.4657132   7.4675906   7.4723970
   7.4660599   7.4602356   7.4638320   7.4528654   7.4528512   7.4639173
   0.1866453   0.1842746   0.1832089   0.1858535   0.1860707   0.1828511
   0.1839030   0.1868830
 SUMMED SPIN DENSITY           2.00000000
 TOTAL ATOMIC SPINS  :
   0.3833455   0.4782323   0.4256698   0.3517908   0.5860177  -0.4417344
  -0.0330073  -0.4419885   0.1103253   0.0073380   0.0881943  -0.0215564
   0.1093475  -0.0200695   0.0740456   0.0084709   0.1177119   0.1103724
   0.1203168   0.1299571   0.0372315  -0.1039457  -0.1038235   0.0369117
  -0.0017511  -0.0006070  -0.0005761  -0.0017202  -0.0016435  -0.0005818
  -0.0005846  -0.0016896
 TTTTTTTTTTTTTTTTTTTTTTTTTTTTTT MOQGAD      TELAPSE    85347.47 TCPU    80145.92
 TTTTTTTTTTTTTTTTTTTTTTTTTTTTTT SHELLXN     TELAPSE    85895.83 TCPU    80685.89
 TTTTTTTTTTTTTTTTTTTTTTTTTTTTTT MONMO3      TELAPSE    85941.04 TCPU    80730.65
 NUMERICALLY INTEGRATED DENSITY    133.9995786452    131.9995512935
 TTTTTTTTTTTTTTTTTTTTTTTTTTTTTT NUMDFT      TELAPSE    85950.72 TCPU    80740.16
 CYC 128 ETOT(AU) -1.841855027190E+03 DETOT  4.86E-07 tst  1.52E-08 PX  2.58E-04
 CYCLE128 WAVE FUNCTION SAVED IN FORTRAN UNIT 79
 TTTTTTTTTTTTTTTTTTTTTTTTTTTTTT DIIS        TELAPSE    86002.74 TCPU    80789.68
 DIIS TEST: 0.10572E-03 AT SCF   CYCLE 128 - DIIS ACTIVE - HISTORY:   128 CYCLES
 TTTTTTTTTTTTTTTTTTTTTTTTTTTTTT FDIK        TELAPSE    86047.38 TCPU    80798.61
 SPIN LOCKING: NO ENERGY GAP COMPUTED
 TTTTTTTTTTTTTTTTTTTTTTTTTTTTTT PDIG        TELAPSE    86051.03 TCPU    80801.09
 CHARGE NORMALIZATION FACTOR   1.00000000
 TOTAL ATOMIC CHARGES:
  18.1451648  18.1123645  18.1322225  18.1474786  18.0799938  18.1181326
  18.2017313  18.1180442   7.4758163   7.4662209   7.4678627   7.4695978
   7.4757145   7.4689775   7.4755420   7.4657071   7.4676301   7.4723884
   7.4660086   7.4602395   7.4638328   7.4528667   7.4528543   7.4639174
   0.1866493   0.1842762   0.1832038   0.1858523   0.1860670   0.1828494
   0.1839084   0.1868845
 SUMMED SPIN DENSITY           2.00000000
 TOTAL ATOMIC SPINS  :
   0.3835955   0.4785351   0.4255300   0.3513913   0.5860374  -0.4417046
  -0.0330913  -0.4419605   0.1103241   0.0074213   0.0881203  -0.0216346
   0.1093517  -0.0201595   0.0741115   0.0085426   0.1176439   0.1103800
   0.1203948   0.1299462   0.0372403  -0.1039529  -0.1038304   0.0369213
  -0.0017509  -0.0006068  -0.0005757  -0.0017195  -0.0016439  -0.0005815
  -0.0005849  -0.0016903
 TTTTTTTTTTTTTTTTTTTTTTTTTTTTTT MOQGAD      TELAPSE    86051.07 TCPU    80801.14
mpiexec: killing job...

--------------------------------------------------------------------------
mpiexec noticed that process rank 0 with PID 78876 on node golub219 exited on signal 0 (Unknown signal 0).
--------------------------------------------------------------------------
mpiexec: clean termination accomplished

20 total processes killed (some possibly by mpiexec during cleanup)
