--------------------------------------------------------------------------
WARNING: No preset parameters were found for the device that Open MPI
detected:

  Local host:            golub002
  Device name:           mlx4_0
  Device vendor ID:      0x02c9
  Device vendor part ID: 4099

Default device parameters will be used, which may result in lower
performance.  You can edit any of the files specified by the
btl_openib_device_param_files MCA parameter to set values for your
device.

NOTE: You can turn off this warning by setting the MCA parameter
      btl_openib_warn_no_device_params_found to 0.
--------------------------------------------------------------------------
 PROCESS            3  OF           16  WORKING
 PROCESS            5  OF           16  WORKING
 PROCESS           15  OF           16  WORKING
 PROCESS           14  OF           16  WORKING
 PROCESS           13  OF           16  WORKING
 PROCESS            0  OF           16  WORKING
 PROCESS            7  OF           16  WORKING
 PROCESS           10  OF           16  WORKING
 PROCESS           12  OF           16  WORKING
 PROCESS            8  OF           16  WORKING
 PROCESS            9  OF           16  WORKING
 PROCESS           11  OF           16  WORKING
 PROCESS            1  OF           16  WORKING
 PROCESS            2  OF           16  WORKING
 PROCESS            6  OF           16  WORKING
 PROCESS            4  OF           16  WORKING

         
 *******************************************************************************
 *                                                                             *
 *                               CRYSTAL17                                     *
 *                      public : 1.0.1 - Jun 21st, 2017                        *
 *                       HTTP://WWW.CRYSTAL.UNITO.IT                           *
 *                                                                             *
 *                              MAIN AUTHORS                                   *
 *                                                                             *
 *  R. DOVESI(1,11), V.R. SAUNDERS(2), C. ROETTI(1,11), R. ORLANDO(1,11),      *
 *  C.M. ZICOVICH-WILSON(1,3), F. PASCALE(4), B. CIVALLERI(1,11),              *
 *  K. DOLL(5), N.M. HARRISON(2,6), I.J. BUSH(7), Ph. D'ARCO(8),               *
 *  M. LLUNELL(9), M. CAUSA'(10), Y. NOEL(8), L. MASCHIO(1,11), A. ERBA(1,11)  *
 *  M. RE'RAT(14), S. CASASSA(1,11)                                            *
 *                                                                             *
 *        CONTRIBUTIONS TO THE CODE HAVE ALSO BEEN GIVEN BY                    *
 *                                                                             *
 *  M. FERRABONE(1,11), M. DE LA PIERRE(1,11), M. FERRERO(1,11),               *
 *  J. BAIMA(1,11), E. ALBANESE(1,11), M.F. PEINTINGER(12), R. BAST(13),       *
 *  B. KIRTMAN(15), V. LACIVITA(1,11), R. DEMICHELIS(1,16)                     *
 *  G. BRANDEBURG(17), S. SALUSTRO(1,11), G. SANSONE(1,11)                     *
 *  M.T. RUGGIERO(18)                                                          *
 *                                                                             *
 * (1) THEORETICAL CHEMISTRY GROUP - UNIVERSITA' DI TORINO - TORINO (ITALY)    *

 * (2) COMPUTATIONAL SCIENCE & ENGINEERING DEPARTMENT - STFC DARESBURY (UK)    *
 * (3) UNIVERSIDAD AUTONOMA DEL ESTADO DE MORELOS - CUERNAVACA (MEXICO)        *
 * (4) UNIVERSITE' DE LORRAINE - NANCY (FRANCE)                                *
 * (5) UNIVERSITAET STUTTGART- STUTTGART (GERMANY)                             *
 * (6) IMPERIAL COLLEGE - LONDON (UK)                                          *
 * (7) OXFORD E-RESEARCH CENTRE - OXFORD (UK)                                  *
 * (8) UPMC - SORBONNE UNIVERSITES - PARIS (FRANCE)                            *
 * (9) UNIVERSIDAD DE BARCELONA - BARCELONA (SPAIN)                            *
 *(10) UNIVERSITA' DI NAPOLI "FEDERICO II" - NAPOLI (ITALY)                    *
 *(11) NIS - NANOSTRUCTURED INTERFACES AND SURFACES - TORINO (ITALY)           *
 *(12) MPI FUER CHEMISCHE ENERGIEKONVERSION - MUELHEIM AN DER RUHR (GERMANY)   *
 *(13) UNIVERSITY OF TROMSO - TROMSO (NORWAY)                                  *
 *(14) UNIVERSITE' DE PAU ET DES PAYS DE L'ADOUR - PAU (FRANCE)                *
 *(15) UNIVERSITY OF CALIFORNIA SANTA BARBARA - SANTA BARBARA (USA)            *
 *(16) CURTIN UNIVERSITY - PERTH (AUSTRALIA)                                   *
 *(17) UNIVERSITY COLLEGE LONDON - LONDON (UK)                                 *
 *(18) CAMBRIDGE UNIVERSITY - CAMBRIDGE (UK)                                   *
 *                                                                             *
 *******************************************************************************
 EEEEEEEEEE STARTING  DATE 01 12 2017 TIME 11:12:35.4
 Generated by CrystalWriter                                                      

 CRYSTAL CALCULATION
 (INPUT ACCORDING TO THE INTERNATIONAL TABLES FOR X-RAY CRYSTALLOGRAPHY)
 CRYSTAL FAMILY                       :  TETRAGONAL  
 CRYSTAL CLASS  (GROTH - 1921)        :  DITETRAGONAL DIPYRAMIDAL             

 SPACE GROUP (CENTROSYMMETRIC)        :  P 4/M M M       

 LATTICE PARAMETERS  (ANGSTROMS AND DEGREES) - CONVENTIONAL CELL
        A           B           C        ALPHA        BETA       GAMMA
     3.92785     3.92785     3.43380    90.00000    90.00000    90.00000


 NUMBER OF IRREDUCIBLE ATOMS IN THE CONVENTIONAL CELL:    4

 INPUT COORDINATES

 ATOM AT. N.              COORDINATES
   1 238     0.000000000000E+00  0.000000000000E+00  5.000000000000E-01
   2 229     5.000000000000E-01  5.000000000000E-01  0.000000000000E+00
   3 208     0.000000000000E+00  5.000000000000E-01  0.000000000000E+00
   4 208     5.000000000000E-01  0.000000000000E+00  0.000000000000E+00

 *******************************************************************************

 << INFORMATION >>: FROM NOW ON, ALL COORDINATES REFER TO THE PRIMITIVE CELL

 *******************************************************************************

 LATTICE PARAMETERS  (ANGSTROMS AND DEGREES) - PRIMITIVE CELL
       A          B          C        ALPHA      BETA     GAMMA        VOLUME
    3.92785    3.92785    3.43380    90.00000  90.00000  90.00000     52.976686

 INPUT LIST - ATOM N.   4 NOT IRREDUCIBLE

 COORDINATES OF THE EQUIVALENT ATOMS (FRACTIONAL UNITS)

 N. ATOM EQUIV AT. N.          X                  Y                  Z

   1   1   1  238 SR    0.00000000000E+00  0.00000000000E+00 -5.00000000000E-01

   2   2   1  229 CU   -5.00000000000E-01 -5.00000000000E-01  0.00000000000E+00

   3   3   1  208 O     0.00000000000E+00 -5.00000000000E-01  0.00000000000E+00
   4   3   2  208 O     5.00000000000E-01  0.00000000000E+00  0.00000000000E+00

 NUMBER OF SYMMETRY OPERATORS         :   16
 *******************************************************************************
 * GEOMETRY EDITING - INPUT COORDINATES ARE GIVEN IN ANGSTROM         
 *******************************************************************************

 GEOMETRY NOW FULLY CONSISTENT WITH THE GROUP

 NO SYMMOPS WITH FINITE TRANSLATIONAL COMPONENT

 *******************************************************************************
 * SUPERCELL OPTION
 *******************************************************************************


        EXPANSION MATRIX OF PRIMITIVE CELL
 E1     2.000     0.000     0.000
 E2     0.000     2.000     0.000
 E3     0.000     0.000     1.000

 NUMBER OF ATOMS PER SUPERCELL    16

        DIRECT LATTICE VECTORS COMPONENTS (ANGSTROM)
 B1     7.856     0.000     0.000
 B2     0.000     7.856     0.000
 B3     0.000     0.000     3.434

 LATTICE PARAMETERS  (ANGSTROM AND DEGREES)
       A          B          C         ALPHA     BETA     GAMMA        VOLUME
    7.85570    7.85570    3.43380    90.00000  90.00000  90.00000    211.906743


 **** ATOMS BELONGING TO THE SUPERCELL
 LABEL AT.NO.      COORDINATES (ANGSTROM AND FRACTIONAL)
     1   238     0.0000     0.0000     1.7169     0.0000     0.0000     0.5000
     2   238     0.0000     3.9278     1.7169     0.0000     0.5000     0.5000
     3   238    -3.9278     0.0000     1.7169    -0.5000     0.0000     0.5000
     4   238    -3.9278     3.9278     1.7169    -0.5000     0.5000     0.5000
     5   229    -1.9639    -1.9639     0.0000    -0.2500    -0.2500     0.0000
     6   229    -1.9639     1.9639     0.0000    -0.2500     0.2500     0.0000
     7   229     1.9639    -1.9639     0.0000     0.2500    -0.2500     0.0000
     8   229     1.9639     1.9639     0.0000     0.2500     0.2500     0.0000
     9   208     0.0000    -1.9639     0.0000     0.0000    -0.2500     0.0000
    10   208     0.0000     1.9639     0.0000     0.0000     0.2500     0.0000
    11   208    -3.9278    -1.9639     0.0000    -0.5000    -0.2500     0.0000
    12   208    -3.9278     1.9639     0.0000    -0.5000     0.2500     0.0000
    13   208    -1.9639     0.0000     0.0000    -0.2500     0.0000     0.0000
    14   208    -1.9639     3.9278     0.0000    -0.2500     0.5000     0.0000
    15   208     1.9639     0.0000     0.0000     0.2500     0.0000     0.0000
    16   208     1.9639     3.9278     0.0000     0.2500     0.5000     0.0000

 **************************** SUPERCELL GENERATED ****************************
 *********************************************************************
                        ATOMIC SITE SYMMETRIES
 *********************************************************************


 ATOM   1 ATOMIC NUMBER 238 - NUMBER OF SYMMOPS WHICH DO NOT MOVE THE ATOM  16
 SEQUENCE NUMBERS OF THE SYMMOPS
    1    2    3    4    5    6    7    8    9   10   11   12   13   14   15
   16
 NO EQUIVALENT ATOMS


 ATOM   2 ATOMIC NUMBER 238 - NUMBER OF SYMMOPS WHICH DO NOT MOVE THE ATOM   8
 SEQUENCE NUMBERS OF THE SYMMOPS
    1    2    3    4    9   10   11   12
 NUMBER OF ATOMS EQUIVALENT BY SYMMETRY    1
 SEQUENCE NUMBERS OF THESE ATOMS
    3
 SEQUENCE NUMBERS OF THE CORRESPONDING SYMMOPS
    5


 ATOM   3 ATOMIC NUMBER 238 - NUMBER OF SYMMOPS WHICH DO NOT MOVE THE ATOM   8
 SEQUENCE NUMBERS OF THE SYMMOPS
    1    2    3    4    9   10   11   12
 NUMBER OF ATOMS EQUIVALENT BY SYMMETRY    1
 SEQUENCE NUMBERS OF THESE ATOMS
    2
 SEQUENCE NUMBERS OF THE CORRESPONDING SYMMOPS
    5


 ATOM   4 ATOMIC NUMBER 238 - NUMBER OF SYMMOPS WHICH DO NOT MOVE THE ATOM  16
 SEQUENCE NUMBERS OF THE SYMMOPS
    1    2    3    4    5    6    7    8    9   10   11   12   13   14   15
   16
 NO EQUIVALENT ATOMS


 ATOM   5 ATOMIC NUMBER 229 - NUMBER OF SYMMOPS WHICH DO NOT MOVE THE ATOM   4
 SEQUENCE NUMBERS OF THE SYMMOPS
    1    6   10   13
 NUMBER OF ATOMS EQUIVALENT BY SYMMETRY    3
 SEQUENCE NUMBERS OF THESE ATOMS
    8    6    7
 SEQUENCE NUMBERS OF THE CORRESPONDING SYMMOPS
    2    3    4


 ATOM   6 ATOMIC NUMBER 229 - NUMBER OF SYMMOPS WHICH DO NOT MOVE THE ATOM   4
 SEQUENCE NUMBERS OF THE SYMMOPS
    1    5   10   14
 NUMBER OF ATOMS EQUIVALENT BY SYMMETRY    3
 SEQUENCE NUMBERS OF THESE ATOMS
    7    5    8
 SEQUENCE NUMBERS OF THE CORRESPONDING SYMMOPS
    2    3    4


 ATOM   7 ATOMIC NUMBER 229 - NUMBER OF SYMMOPS WHICH DO NOT MOVE THE ATOM   4
 SEQUENCE NUMBERS OF THE SYMMOPS
    1    5   10   14
 NUMBER OF ATOMS EQUIVALENT BY SYMMETRY    3
 SEQUENCE NUMBERS OF THESE ATOMS
    6    8    5
 SEQUENCE NUMBERS OF THE CORRESPONDING SYMMOPS
    2    3    4


 ATOM   8 ATOMIC NUMBER 229 - NUMBER OF SYMMOPS WHICH DO NOT MOVE THE ATOM   4
 SEQUENCE NUMBERS OF THE SYMMOPS
    1    6   10   13
 NUMBER OF ATOMS EQUIVALENT BY SYMMETRY    3
 SEQUENCE NUMBERS OF THESE ATOMS
    5    7    6
 SEQUENCE NUMBERS OF THE CORRESPONDING SYMMOPS
    2    3    4


 ATOM   9 ATOMIC NUMBER 208 - NUMBER OF SYMMOPS WHICH DO NOT MOVE THE ATOM   4
 SEQUENCE NUMBERS OF THE SYMMOPS
    1    4   10   11
 NUMBER OF ATOMS EQUIVALENT BY SYMMETRY    3
 SEQUENCE NUMBERS OF THESE ATOMS
   10   15   13
 SEQUENCE NUMBERS OF THE CORRESPONDING SYMMOPS
    2    5    6


 ATOM  10 ATOMIC NUMBER 208 - NUMBER OF SYMMOPS WHICH DO NOT MOVE THE ATOM   4
 SEQUENCE NUMBERS OF THE SYMMOPS
    1    4   10   11
 NUMBER OF ATOMS EQUIVALENT BY SYMMETRY    3
 SEQUENCE NUMBERS OF THESE ATOMS
    9   13   15
 SEQUENCE NUMBERS OF THE CORRESPONDING SYMMOPS
    2    5    6


 ATOM  11 ATOMIC NUMBER 208 - NUMBER OF SYMMOPS WHICH DO NOT MOVE THE ATOM   4
 SEQUENCE NUMBERS OF THE SYMMOPS
    1    4   10   11
 NUMBER OF ATOMS EQUIVALENT BY SYMMETRY    3
 SEQUENCE NUMBERS OF THESE ATOMS
   12   16   14
 SEQUENCE NUMBERS OF THE CORRESPONDING SYMMOPS
    2    5    6


 ATOM  12 ATOMIC NUMBER 208 - NUMBER OF SYMMOPS WHICH DO NOT MOVE THE ATOM   4
 SEQUENCE NUMBERS OF THE SYMMOPS
    1    4   10   11
 NUMBER OF ATOMS EQUIVALENT BY SYMMETRY    3
 SEQUENCE NUMBERS OF THESE ATOMS
   11   14   16
 SEQUENCE NUMBERS OF THE CORRESPONDING SYMMOPS
    2    5    6


 ATOM  13 ATOMIC NUMBER 208 - NUMBER OF SYMMOPS WHICH DO NOT MOVE THE ATOM   4
 SEQUENCE NUMBERS OF THE SYMMOPS
    1    3   10   12
 NUMBER OF ATOMS EQUIVALENT BY SYMMETRY    3
 SEQUENCE NUMBERS OF THESE ATOMS
   15   10    9
 SEQUENCE NUMBERS OF THE CORRESPONDING SYMMOPS
    2    5    6


 ATOM  14 ATOMIC NUMBER 208 - NUMBER OF SYMMOPS WHICH DO NOT MOVE THE ATOM   4
 SEQUENCE NUMBERS OF THE SYMMOPS
    1    3   10   12
 NUMBER OF ATOMS EQUIVALENT BY SYMMETRY    3
 SEQUENCE NUMBERS OF THESE ATOMS
   16   12   11
 SEQUENCE NUMBERS OF THE CORRESPONDING SYMMOPS
    2    5    6


 ATOM  15 ATOMIC NUMBER 208 - NUMBER OF SYMMOPS WHICH DO NOT MOVE THE ATOM   4
 SEQUENCE NUMBERS OF THE SYMMOPS
    1    3   10   12
 NUMBER OF ATOMS EQUIVALENT BY SYMMETRY    3
 SEQUENCE NUMBERS OF THESE ATOMS
   13    9   10
 SEQUENCE NUMBERS OF THE CORRESPONDING SYMMOPS
    2    5    6


 ATOM  16 ATOMIC NUMBER 208 - NUMBER OF SYMMOPS WHICH DO NOT MOVE THE ATOM   4
 SEQUENCE NUMBERS OF THE SYMMOPS
    1    3   10   12
 NUMBER OF ATOMS EQUIVALENT BY SYMMETRY    3
 SEQUENCE NUMBERS OF THESE ATOMS
   14   11   12
 SEQUENCE NUMBERS OF THE CORRESPONDING SYMMOPS
    2    5    6

 *****   16 SYMMOPS - TRANSLATORS IN ANGSTROM
 ***** MATRICES AND TRANSLATORS IN THE CARTESIAN REFERENCE FRAME

 ORDER   : ORDER OF THE OPERATOR

 TRANSLA : REAL TRANSLATION (WITHOUT ORIGIN SHIFT) IN CARTESIAN COORDINATES

 uvw/hkl : ORIENTATION OF THE OPERATOR IN CARTESIAN COORDINATES

 LOCATED : ORIGIN OF THE OPERATOR IN CARTESIAN COORDINATES

   NO.   1 INVERSE   1    ORDER   1        NO.   2 INVERSE   2    ORDER   2
    1.000   0.000   0.000     0.000        -1.000   0.000   0.000     0.000
    0.000   1.000   0.000     0.000         0.000  -1.000   0.000     0.000
    0.000   0.000   1.000     0.000         0.000   0.000   1.000     0.000
             OPERATION E(   1)                       OPERATION C(   2)
 DETERMINANT 1.; ROTATION(DEG)   0.      DETERMINANT 1.; ROTATION(DEG) 180.
 TRANSLA (  0.000    0.000    0.000)     TRANSLA (  0.000    0.000    0.000)
 uvw/hkl (  0.000    0.000    0.000)     uvw/hkl (  0.000    0.000    4.000)
 LOCATED (  0.000    0.000    0.000)     LOCATED (  0.000    0.000    0.000)

   NO.   3 INVERSE   3    ORDER   2        NO.   4 INVERSE   4    ORDER   2
    1.000   0.000   0.000     0.000        -1.000   0.000   0.000     0.000
    0.000  -1.000   0.000     0.000         0.000   1.000   0.000     0.000
    0.000   0.000  -1.000     0.000         0.000   0.000  -1.000     0.000
             OPERATION C(   2)                       OPERATION C(   2)
 DETERMINANT 1.; ROTATION(DEG) 180.      DETERMINANT 1.; ROTATION(DEG) 180.
 TRANSLA (  0.000    0.000    0.000)     TRANSLA (  0.000    0.000    0.000)
 uvw/hkl (  4.000    0.000    0.000)     uvw/hkl (  0.000   -4.000    0.000)
 LOCATED (  0.000    0.000    0.000)     LOCATED (  0.000    0.000    0.000)

   NO.   5 INVERSE   5    ORDER   2        NO.   6 INVERSE   6    ORDER   2
    0.000  -1.000   0.000     0.000         0.000   1.000   0.000     0.000
   -1.000   0.000   0.000     0.000         1.000   0.000   0.000     0.000
    0.000   0.000  -1.000     0.000         0.000   0.000  -1.000     0.000
             OPERATION C(   2)                       OPERATION C(   2)
 DETERMINANT 1.; ROTATION(DEG) 180.      DETERMINANT 1.; ROTATION(DEG) 180.
 TRANSLA (  0.000    0.000    0.000)     TRANSLA (  0.000    0.000    0.000)
 uvw/hkl (  2.000   -2.000    0.000)     uvw/hkl ( -2.000   -2.000    0.000)
 LOCATED (  0.000    0.000    0.000)     LOCATED (  0.000    0.000    0.000)

   NO.   7 INVERSE   8    ORDER   4        NO.   8 INVERSE   7    ORDER   4
    0.000   1.000   0.000     0.000         0.000  -1.000   0.000     0.000
   -1.000   0.000   0.000     0.000         1.000   0.000   0.000     0.000
    0.000   0.000   1.000     0.000         0.000   0.000   1.000     0.000
             OPERATION C(   4)                       OPERATION C(   4)
 DETERMINANT 1.; ROTATION(DEG)  90.      DETERMINANT 1.; ROTATION(DEG)  90.
 TRANSLA (  0.000    0.000    0.000)     TRANSLA (  0.000    0.000    0.000)
 uvw/hkl (  0.000    0.000    2.000)     uvw/hkl (  0.000    0.000    2.000)
 LOCATED (  0.000    0.000    0.000)     LOCATED (  0.000    0.000    0.000)

   NO.   9 INVERSE   9    ORDER   2        NO.  10 INVERSE  10    ORDER   2
   -1.000   0.000   0.000     0.000         1.000   0.000   0.000     0.000
    0.000  -1.000   0.000     0.000         0.000   1.000   0.000     0.000
    0.000   0.000  -1.000     0.000         0.000   0.000  -1.000     0.000
             OPERATION I(   2)                       OPERATION M(   2)
 DETERMINANT-1.; ROTATION(DEG) 180.      DETERMINANT-1.; ROTATION(DEG)   0.
 TRANSLA (  0.000    0.000    0.000)     TRANSLA (  0.000    0.000    0.000)
 uvw/hkl (  0.000    0.000    0.000)     uvw/hkl (  0.000    0.000   -2.000)
 LOCATED (  0.000    0.000    0.000)     LOCATED (  0.000    0.000    0.000)

   NO.  11 INVERSE  11    ORDER   2        NO.  12 INVERSE  12    ORDER   2
   -1.000   0.000   0.000     0.000         1.000   0.000   0.000     0.000
    0.000   1.000   0.000     0.000         0.000  -1.000   0.000     0.000
    0.000   0.000   1.000     0.000         0.000   0.000   1.000     0.000
             OPERATION M(   2)                       OPERATION M(   2)
 DETERMINANT-1.; ROTATION(DEG)   0.      DETERMINANT-1.; ROTATION(DEG)   0.
 TRANSLA (  0.000    0.000    0.000)     TRANSLA (  0.000    0.000    0.000)
 uvw/hkl (  2.000    0.000    0.000)     uvw/hkl (  0.000   -2.000    0.000)
 LOCATED (  0.000    0.000    0.000)     LOCATED (  0.000    0.000    0.000)

   NO.  13 INVERSE  13    ORDER   2        NO.  14 INVERSE  14    ORDER   2
    0.000   1.000   0.000     0.000         0.000  -1.000   0.000     0.000
    1.000   0.000   0.000     0.000        -1.000   0.000   0.000     0.000
    0.000   0.000   1.000     0.000         0.000   0.000   1.000     0.000
             OPERATION M(   2)                       OPERATION M(   2)
 DETERMINANT-1.; ROTATION(DEG)   0.      DETERMINANT-1.; ROTATION(DEG)   0.
 TRANSLA (  0.000    0.000    0.000)     TRANSLA (  0.000    0.000    0.000)
 uvw/hkl (  1.000   -1.000    0.000)     uvw/hkl (  1.000    1.000    0.000)
 LOCATED (  0.000    0.000    0.000)     LOCATED (  0.000    0.000    0.000)

   NO.  15 INVERSE  16    ORDER   4        NO.  16 INVERSE  15    ORDER   4
    0.000  -1.000   0.000     0.000         0.000   1.000   0.000     0.000
    1.000   0.000   0.000     0.000        -1.000   0.000   0.000     0.000
    0.000   0.000  -1.000     0.000         0.000   0.000  -1.000     0.000
             OPERATION S(   4)                       OPERATION S(   4)
 DETERMINANT-1.; ROTATION(DEG)  90.      DETERMINANT-1.; ROTATION(DEG)  90.
 TRANSLA (  0.000    0.000    0.000)     TRANSLA (  0.000    0.000    0.000)
 uvw/hkl (  0.000    0.000    2.000)     uvw/hkl (  0.000    0.000    2.000)
 LOCATED (  0.000    0.000    0.000)     LOCATED (  0.000    0.000    0.000)
 SSSSSSSSSSSSSSSSSSSSSSSSSSSSSSSSSSSSSSSSSSSSSSSSSSSSSSSSSSSSSSSSSSSSSSSSSSSSSS
 REDUCTION OF SYMMETRY - ATOMIC LABELS SET TO (ATOM, AT. N., LABEL)
   1(238) 1;   2(238) 1;   3(238) 1;   4(238) 1;   5(229) 2;   6(229) 3;
   7(229) 3;   8(229) 2;   9(208) 4;  10(208) 4;  11(208) 4;  12(208) 4;
  13(208) 4;  14(208) 4;  15(208) 4;  16(208) 4;
 THE NUMBER OF SYMMETRY OPERATORS HAS BEEN REDUCED FROM 16 TO  8
 *******************************************************************************

 GCALCO - MAX INDICES DIRECT LATTICE VECTOR    11    11    25
 NO.OF VECTORS CREATED 6999 STARS  550 RMAX   133.78549 BOHR

 GEOMETRY FOR WAVE FUNCTION - DIMENSIONALITY OF THE SYSTEM    3
 (NON PERIODIC DIRECTION: LATTICE PARAMETER FORMALLY SET TO 500)
 *******************************************************************************
 LATTICE PARAMETERS (ANGSTROMS AND DEGREES) - BOHR = 0.5291772083 ANGSTROM
 PRIMITIVE CELL - CENTRING CODE 1/1 VOLUME=   211.906743 - DENSITY  5.731 g/cm^3
         A              B              C           ALPHA      BETA       GAMMA 
     7.85570000     7.85570000     3.43380000    90.000000  90.000000  90.000000
 *******************************************************************************
 ATOMS IN THE ASYMMETRIC UNIT    7 - ATOMS IN THE UNIT CELL:   16
     ATOM                 X/A                 Y/B                 Z/C    
 *******************************************************************************
      1 T 238 SR    0.000000000000E+00  0.000000000000E+00  5.000000000000E-01
      2 T 238 SR    0.000000000000E+00 -5.000000000000E-01  5.000000000000E-01
      3 F 238 SR   -5.000000000000E-01  0.000000000000E+00  5.000000000000E-01
      4 T 238 SR   -5.000000000000E-01 -5.000000000000E-01  5.000000000000E-01
      5 T 229 CU   -2.500000000000E-01 -2.500000000000E-01  0.000000000000E+00
      6 T 229 CU   -2.500000000000E-01  2.500000000000E-01  0.000000000000E+00
      7 F 229 CU    2.500000000000E-01 -2.500000000000E-01  0.000000000000E+00
      8 F 229 CU    2.500000000000E-01  2.500000000000E-01  0.000000000000E+00
      9 T 208 O     0.000000000000E+00 -2.500000000000E-01  0.000000000000E+00
     10 F 208 O     0.000000000000E+00  2.500000000000E-01  0.000000000000E+00
     11 T 208 O    -5.000000000000E-01 -2.500000000000E-01  0.000000000000E+00
     12 F 208 O    -5.000000000000E-01  2.500000000000E-01  0.000000000000E+00
     13 F 208 O    -2.500000000000E-01  0.000000000000E+00  0.000000000000E+00
     14 F 208 O    -2.500000000000E-01 -5.000000000000E-01  0.000000000000E+00
     15 F 208 O     2.500000000000E-01  0.000000000000E+00  0.000000000000E+00
     16 F 208 O     2.500000000000E-01 -5.000000000000E-01  0.000000000000E+00

 T = ATOM BELONGING TO THE ASYMMETRIC UNIT

 ****    8 SYMMOPS - TRANSLATORS IN FRACTIONAL UNITS
 **** MATRICES AND TRANSLATORS IN THE CRYSTALLOGRAPHIC REFERENCE FRAME
   V INV                    ROTATION MATRICES                   TRANSLATORS
   1   1  1.00  0.00  0.00  0.00  1.00  0.00  0.00  0.00  1.00  0.00  0.00  0.00
   2   2 -1.00  0.00  0.00  0.00 -1.00  0.00  0.00  0.00  1.00  0.00  0.00  0.00
   3   3  0.00 -1.00  0.00 -1.00  0.00  0.00  0.00  0.00 -1.00  0.00  0.00  0.00
   4   4  0.00  1.00  0.00  1.00  0.00  0.00  0.00  0.00 -1.00  0.00  0.00  0.00
   5   5 -1.00  0.00  0.00  0.00 -1.00  0.00  0.00  0.00 -1.00  0.00  0.00  0.00
   6   6  1.00  0.00  0.00  0.00  1.00  0.00  0.00  0.00 -1.00  0.00  0.00  0.00
   7   7  0.00  1.00  0.00  1.00  0.00  0.00  0.00  0.00  1.00  0.00  0.00  0.00
   8   8  0.00 -1.00  0.00 -1.00  0.00  0.00  0.00  0.00  1.00  0.00  0.00  0.00

 DIRECT LATTICE VECTORS CARTESIAN COMPONENTS (ANGSTROM)
          X                    Y                    Z
   0.785570000000E+01   0.000000000000E+00   0.000000000000E+00
   0.000000000000E+00   0.785570000000E+01   0.000000000000E+00
   0.000000000000E+00   0.000000000000E+00   0.343380000000E+01


 CARTESIAN COORDINATES - PRIMITIVE CELL
 *******************************************************************************
 *      ATOM          X(ANGSTROM)         Y(ANGSTROM)         Z(ANGSTROM)
 *******************************************************************************
    1   238 SR    0.000000000000E+00  0.000000000000E+00  1.716900000000E+00
    2   238 SR    0.000000000000E+00  3.927850000000E+00  1.716900000000E+00
    3   238 SR    3.927850000000E+00  0.000000000000E+00  1.716900000000E+00
    4   238 SR    3.927850000000E+00  3.927850000000E+00  1.716900000000E+00
    5   229 CU   -1.963925000000E+00 -1.963925000000E+00  0.000000000000E+00
    6   229 CU   -1.963925000000E+00  1.963925000000E+00  0.000000000000E+00
    7   229 CU    1.963925000000E+00 -1.963925000000E+00  0.000000000000E+00
    8   229 CU    1.963925000000E+00  1.963925000000E+00  0.000000000000E+00
    9   208 O     0.000000000000E+00 -1.963925000000E+00  0.000000000000E+00
   10   208 O     0.000000000000E+00  1.963925000000E+00  0.000000000000E+00
   11   208 O     3.927850000000E+00 -1.963925000000E+00  0.000000000000E+00
   12   208 O     3.927850000000E+00  1.963925000000E+00  0.000000000000E+00
   13   208 O    -1.963925000000E+00  0.000000000000E+00  0.000000000000E+00
   14   208 O    -1.963925000000E+00  3.927850000000E+00  0.000000000000E+00
   15   208 O     1.963925000000E+00  0.000000000000E+00  0.000000000000E+00
   16   208 O     1.963925000000E+00  3.927850000000E+00  0.000000000000E+00

 *******************************************************************************
 *** PSEUDOPOTENTIAL INFORMATION ***
 *******************************************************************************

 ATOMIC NUMBER  29, NUCLEAR CHARGE 19.000, GIVEN IN INPUT       PSEUDOPOTENTIAL
   TYPE       EXPONENT      COEFF.    N      EXPONENT      COEFF.    N
  W0 TMS     6.2514963   19.0000000  -1     6.7272533  118.7784294   1
             6.6102459 -105.8998240   0
  P0 TMS    12.3656871  127.3506942   0
  P1 TMS    11.1607294   71.2298490   0

 ATOMIC NUMBER   8, NUCLEAR CHARGE  6.000, GIVEN IN INPUT       PSEUDOPOTENTIAL
   TYPE       EXPONENT      COEFF.    N      EXPONENT      COEFF.    N
  W0 TMS     9.2979390    6.0000000  -1     8.8649220   55.7876342   1
             8.6292567  -38.8197850   0
  P0 TMS     8.7192445   38.4191413   0

 ATOMIC NUMBER  38, NUCLEAR CHARGE  2.000, GIVEN IN INPUT       PSEUDOPOTENTIAL
   TYPE       EXPONENT      COEFF.    N      EXPONENT      COEFF.    N
  W0 TMS     4.3839388    2.0000000  -1     3.1964983    8.7678775   1
             0.9899150  -14.2552431   0
  P0 TMS     1.2868349  146.8716052   0
  P1 TMS     0.9567448  140.0262284   0
  P2 TMS     1.9483165   24.4454878   0

 *******************************************************************************
 LOCAL ATOMIC FUNCTIONS BASIS SET
 *******************************************************************************
   ATOM   X(AU)   Y(AU)   Z(AU)  N. TYPE  EXPONENT  S COEF   P COEF   D/F/G COEF
 *******************************************************************************
   1 SR   0.000   0.000   3.244
                                  1 S  
                                         2.177E-01-9.389E-02 0.000E+00 0.000E+00
                                         4.871E-01-2.476E-01 0.000E+00 0.000E+00
                                         1.090E+00 1.601E-01 0.000E+00 0.000E+00
                                         2.439E+00-4.360E-02 0.000E+00 0.000E+00
                                         5.457E+00 8.684E-03 0.000E+00 0.000E+00
                                         1.221E+01-1.296E-03 0.000E+00 0.000E+00
                           2-     4 P  
                                         2.236E-01 0.000E+00-4.747E-02 0.000E+00
                                         4.507E-01 0.000E+00-1.710E-01 0.000E+00
                                         9.086E-01 0.000E+00 1.048E-01 0.000E+00
                                         1.831E+00 0.000E+00-2.952E-02 0.000E+00
                                         3.692E+00 0.000E+00 6.196E-03 0.000E+00
                                         7.442E+00 0.000E+00-9.550E-04 0.000E+00
                           5-     9 D  
                                         5.283E-01 0.000E+00 0.000E+00 1.000E+00
                                 10 S  
                                         2.000E-01 1.000E+00 0.000E+00 0.000E+00
                                 11 S  
                                         6.000E-01 1.000E+00 0.000E+00 0.000E+00
                          12-    14 P  
                                         2.000E-01 0.000E+00 1.000E+00 0.000E+00
                          15-    17 P  
                                         6.000E-01 0.000E+00 1.000E+00 0.000E+00
   2 SR   0.000   7.423   3.244
   3 SR   7.423   0.000   3.244
   4 SR   7.423   7.423   3.244
   5 CU  -3.711  -3.711   0.000
                                 69 S  
                                         2.785E+01-1.934E-02 0.000E+00 0.000E+00
                                         2.142E+01 8.861E-02 0.000E+00 0.000E+00
                                         1.054E+01-3.559E-01 0.000E+00 0.000E+00
                                         2.536E+00 5.381E-01 0.000E+00 0.000E+00
                                         1.250E+00 5.111E-01 0.000E+00 0.000E+00
                                         5.998E-01 1.476E-01 0.000E+00 0.000E+00
                                 70 S  
                                         2.785E+01-2.653E-03 0.000E+00 0.000E+00
                                         2.142E+01-7.542E-03 0.000E+00 0.000E+00
                                         1.054E+01 7.976E-02 0.000E+00 0.000E+00
                                         2.536E+00-1.553E-01 0.000E+00 0.000E+00
                                         1.250E+00-2.531E-01 0.000E+00 0.000E+00
                                         5.998E-01-2.817E-02 0.000E+00 0.000E+00
                          71-    73 P  
                                         1.859E+01 0.000E+00 3.652E-03 0.000E+00
                                         1.430E+01 0.000E+00-3.708E-02 0.000E+00
                                         5.631E+00 0.000E+00 2.171E-01 0.000E+00
                                         2.683E+00 0.000E+00 4.410E-01 0.000E+00
                                         1.259E+00 0.000E+00 3.587E-01 0.000E+00
                                         5.741E-01 0.000E+00 1.148E-01 0.000E+00
                                         2.092E-01 0.000E+00 7.316E-03 0.000E+00
                          74-    78 D  
                                         1.579E+01 0.000E+00 0.000E+00 8.422E-02
                                         7.203E+00 0.000E+00 0.000E+00 2.554E-01
                                         2.974E+00 0.000E+00 0.000E+00 3.500E-01
                                         1.207E+00 0.000E+00 0.000E+00 3.417E-01
                                         4.640E-01 0.000E+00 0.000E+00 2.417E-01
                          79-    85 F  
                                         1.692E+00 0.000E+00 0.000E+00 1.000E+00
                                 86 S  
                                         2.000E-01 1.000E+00 0.000E+00 0.000E+00
                                 87 S  
                                         6.000E-01 1.000E+00 0.000E+00 0.000E+00
                          88-    90 P  
                                         2.000E-01 0.000E+00 1.000E+00 0.000E+00
                          91-    93 P  
                                         6.000E-01 0.000E+00 1.000E+00 0.000E+00
                          94-    98 D  
                                         2.000E-01 0.000E+00 0.000E+00 1.000E+00
                          99-   103 D  
                                         6.000E-01 0.000E+00 0.000E+00 1.000E+00
   6 CU  -3.711   3.711   0.000
   7 CU   3.711  -3.711   0.000
   8 CU   3.711   3.711   0.000
   9 O    0.000  -3.711   0.000
                                209 S  
                                         2.680E-01 3.048E-01 0.000E+00 0.000E+00
                                         5.731E-01 4.538E-01 0.000E+00 0.000E+00
                                         1.225E+00 2.959E-01 0.000E+00 0.000E+00
                                         2.620E+00 1.957E-02 0.000E+00 0.000E+00
                                         5.603E+00-1.286E-01 0.000E+00 0.000E+00
                                         1.198E+01 1.202E-02 0.000E+00 0.000E+00
                                         2.562E+01 4.070E-04 0.000E+00 0.000E+00
                                         5.478E+01-7.600E-05 0.000E+00 0.000E+00
                         210-   212 P  
                                         3.337E-01 0.000E+00 2.560E-01 0.000E+00
                                         6.666E-01 0.000E+00 2.819E-01 0.000E+00
                                         1.332E+00 0.000E+00 2.428E-01 0.000E+00
                                         2.661E+00 0.000E+00 1.611E-01 0.000E+00
                                         5.316E+00 0.000E+00 8.231E-02 0.000E+00
                                         1.062E+01 0.000E+00 3.990E-02 0.000E+00
                                         2.122E+01 0.000E+00 4.679E-03 0.000E+00
                         213-   217 D  
                                         6.693E-01 0.000E+00 0.000E+00 1.000E+00
                         218-   224 F  
                                         1.423E+00 0.000E+00 0.000E+00 1.000E+00
                                225 S  
                                         2.000E-01 1.000E+00 0.000E+00 0.000E+00
                                226 S  
                                         6.000E-01 1.000E+00 0.000E+00 0.000E+00
                         227-   229 P  
                                         2.000E-01 0.000E+00 1.000E+00 0.000E+00
                         230-   232 P  
                                         6.000E-01 0.000E+00 1.000E+00 0.000E+00
  10 O    0.000   3.711   0.000
  11 O    7.423  -3.711   0.000
  12 O    7.423   3.711   0.000
  13 O   -3.711   0.000   0.000
  14 O   -3.711   7.423   0.000
  15 O    3.711   0.000   0.000
  16 O    3.711   7.423   0.000
 INFORMATION **** SET_MPP **** PCRYSTAL CALCULATION
 INFORMATION **** READM2 **** NEW DEFAULT: FOCK/KS MATRIX MIXING SET TO 30 %
 INFORMATION **** READM2 **** NEW DEFAULT: FULL DIRECT SCF MODE
 INFORMATION **** READM2 **** NEW DEFAULT: COULOMB BIPOLAR BUFFER SET TO 32 Mb
 INFORMATION **** READM2 **** NEW DEFAULT: EXCHANGE BIPOLAR BUFFER SET TO 32 Mb

 *******************************************************************************
 NEW DEFAULT: DFT INTEGRATION GRID INCREASED TO XLGRID
 NEW DEFAULT: DIIS ACCELERATOR ACTIVE
 USE KEYWORD NODIIS TO TURN IT OFF
 *******************************************************************************

 WARNING **** RDDFTP **** HSEsol-HJS ACTIVE
 RANGE SEPARATION - OMEGA:   0.110000000000000     
 INFORMATION **** READM2 **** FULL DIRECT SCF (MONO AND BIEL INT) SELECTED
 INFORMATION **** BIPOSIZE **** COULOMB BIPOLAR BUFFER SET TO   100000000
 INFORMATION **** EXCHSIZE **** EXCHANGE BIPOLAR BUFFER SIZE SET TO    10000000
 INFORMATION **** TOLDEE **** SCF TOL ON TOTAL ENERGY SET TO          10
 INFORMATION **** TOLINTEG **** COULOMB AND EXCHANGE SERIES TOLERANCES MODIFIED
 INFORMATION **** MAXCYCLE **** MAX NUMBER OF SCF CYCLES SET TO         200
 INFORMATION **** SMEAR **** FERMI SMEARING ACTIVE
 FERMI SMEARING - TEMPERATURE SMEARING OF FERMI SURFACE  0.1000E-12
 INFORMATION **** SAVEWF **** not fully tested
 INFORMATION **** SPINLOCK **** LOCK IN A GIVEN SPIN STATE
 ALPHA-BETA ELECTRONS LOCKED TO   0 FOR 200 SCF CYCLES
 SSSSSSSSSSSSSSSSSSSSSSSSSSSSSSSSSSSSSSSSSSSSSSSSSSSSSSSSSSSSSSSSSSSSSSSSSSSSSS
 ATOMIC SPINS SET TO (ATOM, AT. N., SPIN)
   1 238 0   2 238 0   3 238 0   4 238 0   5 229 1   6 229-1   7 229-1   8 229 1
   9 208 0  10 208 0  11 208 0  12 208 0  13 208 0  14 208 0  15 208 0  16 208 0
 *******************************************************************************
 N. OF ATOMS PER CELL        16  COULOMB OVERLAP TOL         (T1) 10**   -8
 NUMBER OF SHELLS           136  COULOMB PENETRATION TOL     (T2) 10**   -8
 NUMBER OF AO               400  EXCHANGE OVERLAP TOL        (T3) 10**   -8
 N. OF ELECTRONS PER CELL   132  EXCHANGE PSEUDO OVP (F(G))  (T4) 10**   -8
 CORE ELECTRONS PER CELL      0  EXCHANGE PSEUDO OVP (P(G))  (T5) 10**  -16
 N. OF SYMMETRY OPERATORS     8  POLE ORDER IN MONO ZONE                  4
 *******************************************************************************
 TYPE OF CALCULATION :  UNRESTRICTED OPEN SHELL
 KOHN-SHAM HAMILTONIAN

 (EXCHANGE)[CORRELATION] FUNCTIONAL:(HSEsol GGA)[PBEsol]

 RANGE-SEPARATED HYBRID FUNCTIONAL 
 OMEGA (SHORT-RANGE)[LONG-RANGE]:(    0.1100)[    0.0000]

 HYBRID EXCHANGE - PERCENTAGE OF FOCK EXCHANGE    25.0000

 SPIN POLARIZED DFT SELECTED
 CORE  PSEUDO POTENTIAL         TOL. ON PSEUDO              (TP) 10**- 6

 CAPPA:IS1  6;IS2  6;IS3  4; K PTS MONK NET  39; SYMMOPS:K SPACE   8;G SPACE   8

 *******************************************************************************
 MAX NUMBER OF SCF CYCLES     200  CONVERGENCE ON DELTAP        10**-20
 WEIGHT OF F(I) IN F(I+1)      90% CONVERGENCE ON ENERGY        10**-10
 SHRINK. FACT.(MONKH.)    6  6  4  NUMBER OF K POINTS IN THE IBZ     39
 SHRINKING FACTOR(GILAT NET)   12  NUMBER OF K POINTS(GILAT NET)    215
 *******************************************************************************
 *** K POINTS COORDINATES (OBLIQUE COORDINATES IN UNITS OF IS =  6)
   1-R(  0  0  0)   2-C(  1  0  0)   3-C(  2  0  0)   4-R(  3  0  0)
   5-C(  1  1  0)   6-C(  2  1  0)   7-C(  3  1  0)   8-C(  4  1  0)
   9-C(  5  1  0)  10-C(  2  2  0)  11-C(  3  2  0)  12-C(  4  2  0)
  13-R(  3  3  0)  14-C(  0  0  1)  15-C(  1  0  1)  16-C(  2  0  1)
  17-C(  3  0  1)  18-C(  1  1  1)  19-C(  2  1  1)  20-C(  3  1  1)
  21-C(  4  1  1)  22-C(  5  1  1)  23-C(  2  2  1)  24-C(  3  2  1)
  25-C(  4  2  1)  26-C(  3  3  1)  27-R(  0  0  2)  28-C(  1  0  2)
  29-C(  2  0  2)  30-R(  3  0  2)  31-C(  1  1  2)  32-C(  2  1  2)
  33-C(  3  1  2)  34-C(  4  1  2)  35-C(  5  1  2)  36-C(  2  2  2)
  37-C(  3  2  2)  38-C(  4  2  2)  39-R(  3  3  2)

 DIRECT LATTICE VECTORS COMPON. (A.U.)     RECIP. LATTICE VECTORS COMPON. (A.U.) 
        X            Y            Z              X            Y            Z
   14.8451216    0.0000000    0.0000000      0.4232492    0.0000000    0.0000000
    0.0000000   14.8451216    0.0000000      0.0000000    0.4232492    0.0000000
    0.0000000    0.0000000    6.4889416      0.0000000    0.0000000    0.9682912

 DISK SPACE FOR EIGENVECTORS (FTN 10)    11520000 REALS

 SYMMETRY ADAPTION OF THE BLOCH FUNCTIONS ENABLED
 TTTTTTTTTTTTTTTTTTTTTTTTTTTTTT gordsh1     TELAPSE        1.47 TCPU        0.04

 MATRIX SIZE: P(G) 1263000, F(G)  225436, P(G) IRR  107440, F(G) IRR   42582
 MAX G-VECTOR INDEX FOR 1- AND 2-ELECTRON INTEGRALS 103

 TTTTTTTTTTTTTTTTTTTTTTTTTTTTTT INPUT       TELAPSE        1.51 TCPU        0.06

 NEIGHBORS OF THE NON-EQUIVALENT ATOMS

 N = NUMBER OF NEIGHBORS AT DISTANCE R
    ATOM  N     R/ANG      R/AU   NEIGHBORS (ATOM LABELS AND CELL INDICES)
   1 SR   8     2.6086     4.9295    9 O    0 0 0    9 O    0 0 1   10 O    0 0 0
                                    10 O    0 0 1   13 O    0 0 1   13 O    0 0 0
                                    15 O    0 0 1   15 O    0 0 0
   1 SR   8     3.2652     6.1704    5 CU   0 0 0    5 CU   0 0 1    6 CU   0 0 0
                                     6 CU   0 0 1    7 CU   0 0 0    7 CU   0 0 1
                                     8 CU   0 0 0    8 CU   0 0 1
   1 SR   2     3.4338     6.4889    1 SR   0 0-1    1 SR   0 0 1
   1 SR   4     3.9278     7.4226    2 SR   0 0 0    2 SR   0-1 0    3 SR  -1 0 0
                                     3 SR   0 0 0
   1 SR  16     4.7152     8.9104   11 O    0 0 0   11 O    0 0 1   11 O   -1 0 0
                                    11 O   -1 0 1   12 O   -1 0 0   12 O   -1 0 1
                                    12 O    0 0 0   12 O    0 0 1   14 O    0 0 1
                                    14 O    0 0 0   14 O    0-1 1   14 O    0-1 0
                                    16 O    0-1 1   16 O    0-1 0   16 O    0 0 1
                                    16 O    0 0 0
   1 SR   8     5.2172     9.8590    2 SR   0 0 1    2 SR   0 0-1    2 SR   0-1-1
                                     2 SR   0-1 1    3 SR  -1 0-1    3 SR  -1 0 1
                                     3 SR   0 0 1    3 SR   0 0-1

   2 SR   8     2.6086     4.9295    9 O    0 1 0    9 O    0 1 1   10 O    0 0 0
                                    10 O    0 0 1   14 O    0 0 1   14 O    0 0 0
                                    16 O    0 0 1   16 O    0 0 0
   2 SR   8     3.2652     6.1704    5 CU   0 1 0    5 CU   0 1 1    6 CU   0 0 0
                                     6 CU   0 0 1    7 CU   0 1 0    7 CU   0 1 1
                                     8 CU   0 0 0    8 CU   0 0 1
   2 SR   2     3.4338     6.4889    2 SR   0 0-1    2 SR   0 0 1
   2 SR   4     3.9278     7.4226    1 SR   0 0 0    1 SR   0 1 0    4 SR  -1 0 0
                                     4 SR   0 0 0
   2 SR  16     4.7152     8.9104   11 O    0 1 0   11 O    0 1 1   11 O   -1 1 0
                                    11 O   -1 1 1   12 O   -1 0 0   12 O   -1 0 1
                                    12 O    0 0 0   12 O    0 0 1   13 O    0 0 1
                                    13 O    0 0 0   13 O    0 1 1   13 O    0 1 0
                                    15 O    0 1 1   15 O    0 1 0   15 O    0 0 1
                                    15 O    0 0 0
   2 SR   8     5.2172     9.8590    1 SR   0 0-1    1 SR   0 0 1    1 SR   0 1 1
                                     1 SR   0 1-1    4 SR  -1 0-1    4 SR  -1 0 1
                                     4 SR   0 0 1    4 SR   0 0-1

   4 SR   8     2.6086     4.9295   11 O    0 1 0   11 O    0 1 1   12 O    0 0 0
                                    12 O    0 0 1   14 O    1 0 1   14 O    1 0 0
                                    16 O    0 0 1   16 O    0 0 0
   4 SR   8     3.2652     6.1704    5 CU   1 1 0    5 CU   1 1 1    6 CU   1 0 0
                                     6 CU   1 0 1    7 CU   0 1 0    7 CU   0 1 1
                                     8 CU   0 0 0    8 CU   0 0 1
   4 SR   2     3.4338     6.4889    4 SR   0 0-1    4 SR   0 0 1
   4 SR   4     3.9278     7.4226    2 SR   1 0 0    2 SR   0 0 0    3 SR   0 0 0
                                     3 SR   0 1 0
   4 SR  16     4.7152     8.9104    9 O    0 1 0    9 O    0 1 1    9 O    1 1 0
                                     9 O    1 1 1   10 O    1 0 0   10 O    1 0 1
                                    10 O    0 0 0   10 O    0 0 1   13 O    1 0 1
                                    13 O    1 0 0   13 O    1 1 1   13 O    1 1 0
                                    15 O    0 1 1   15 O    0 1 0   15 O    0 0 1
                                    15 O    0 0 0
   4 SR   8     5.2172     9.8590    2 SR   1 0 1    2 SR   1 0-1    2 SR   0 0-1
                                     2 SR   0 0 1    3 SR   0 0-1    3 SR   0 0 1
                                     3 SR   0 1 1    3 SR   0 1-1

   5 CU   4     1.9639     3.7113    9 O    0 0 0   11 O   -1 0 0   13 O    0 0 0
                                    14 O    0-1 0
   5 CU   8     3.2652     6.1704    1 SR   0 0 0    1 SR   0 0-1    2 SR   0-1 0
                                     2 SR   0-1-1    3 SR  -1 0-1    3 SR  -1 0 0
                                     4 SR  -1-1 0    4 SR  -1-1-1
   5 CU   2     3.4338     6.4889    5 CU   0 0-1    5 CU   0 0 1
   5 CU   4     3.9278     7.4226    6 CU   0 0 0    6 CU   0-1 0    7 CU   0 0 0
                                     7 CU  -1 0 0
   5 CU   8     3.9558     7.4753    9 O    0 0 1    9 O    0 0-1   11 O   -1 0-1
                                    11 O   -1 0 1   13 O    0 0 1   13 O    0 0-1
                                    14 O    0-1 1   14 O    0-1-1
   5 CU   8     4.3915     8.2987   10 O    0 0 0   10 O    0-1 0   12 O   -1 0 0
                                    12 O   -1-1 0   15 O    0 0 0   15 O   -1 0 0
                                    16 O    0-1 0   16 O   -1-1 0

   6 CU   4     1.9639     3.7113   10 O    0 0 0   12 O   -1 0 0   13 O    0 0 0
                                    14 O    0 0 0
   6 CU   8     3.2652     6.1704    1 SR   0 0 0    1 SR   0 0-1    2 SR   0 0 0
                                     2 SR   0 0-1    3 SR  -1 0-1    3 SR  -1 0 0
                                     4 SR  -1 0 0    4 SR  -1 0-1
   6 CU   2     3.4338     6.4889    6 CU   0 0-1    6 CU   0 0 1
   6 CU   4     3.9278     7.4226    5 CU   0 0 0    5 CU   0 1 0    8 CU   0 0 0
                                     8 CU  -1 0 0
   6 CU   8     3.9558     7.4753   10 O    0 0 1   10 O    0 0-1   12 O   -1 0-1
                                    12 O   -1 0 1   13 O    0 0-1   13 O    0 0 1
                                    14 O    0 0 1   14 O    0 0-1
   6 CU   8     4.3915     8.2987    9 O    0 0 0    9 O    0 1 0   11 O   -1 0 0
                                    11 O   -1 1 0   15 O    0 0 0   15 O   -1 0 0
                                    16 O    0 0 0   16 O   -1 0 0

   9 O    2     1.9639     3.7113    5 CU   0 0 0    7 CU   0 0 0
   9 O    4     2.6086     4.9295    1 SR   0 0 0    1 SR   0 0-1    2 SR   0-1 0
                                     2 SR   0-1-1
   9 O    4     2.7774     5.2485   13 O    0 0 0   14 O    0-1 0   15 O    0 0 0
                                    16 O    0-1 0
   9 O    2     3.4338     6.4889    9 O    0 0-1    9 O    0 0 1
   9 O    4     3.9278     7.4226   10 O    0 0 0   10 O    0-1 0   11 O   -1 0 0
                                    11 O    0 0 0
   9 O    4     3.9558     7.4753    5 CU   0 0-1    5 CU   0 0 1    7 CU   0 0 1
                                     7 CU   0 0-1

  11 O    2     1.9639     3.7113    5 CU   1 0 0    7 CU   0 0 0
  11 O    4     2.6086     4.9295    3 SR   0 0 0    3 SR   0 0-1    4 SR   0-1 0
                                     4 SR   0-1-1
  11 O    4     2.7774     5.2485   13 O    1 0 0   14 O    1-1 0   15 O    0 0 0
                                    16 O    0-1 0
  11 O    2     3.4338     6.4889   11 O    0 0-1   11 O    0 0 1
  11 O    4     3.9278     7.4226    9 O    1 0 0    9 O    0 0 0   12 O    0 0 0
                                    12 O    0-1 0
  11 O    4     3.9558     7.4753    5 CU   1 0 1    5 CU   1 0-1    7 CU   0 0 1
                                     7 CU   0 0-1


 SYMMETRY ALLOWED INTERNAL DEGREE(S) OF FREEDOM:   6
 TTTTTTTTTTTTTTTTTTTTTTTTTTTTTT SYMM        TELAPSE        2.35 TCPU        0.85
 TTTTTTTTTTTTTTTTTTTTTTTTTTTTTT INT_SCREEN  TELAPSE        2.36 TCPU        0.85

 DFT PARAMETERS

     ATOM       ELECTRONS   NET CHARGE   R(ANGSTROM)
   1 238  SR      0.0000      2.0000     1.18000000
   5 229  CU     17.0000      2.0000     0.73000000
   9 208  O       8.0000     -2.0000     1.40000000

 SIZE OF GRID=      47030
 TTTTTTTTTTTTTTTTTTTTTTTTTTTTTT MAKE_GRID2  TELAPSE        4.84 TCPU        3.33
 BECKE WEIGHT FUNCTION
 RADSAFE =     2.00
 TOLERANCES - DENSITY:10**- 6; POTENTIAL:10**- 9; GRID WGT:10**-14

 RADIAL INTEGRATION  - INTERVALS (POINTS,UPPER LIMIT):            1( 75,  4.0*R)

 ANGULAR INTEGRATION - INTERVALS (ACCURACY LEVEL [N. POINTS] UPPER LIMIT):
  1(  4[  86]   0.2)  2(  8[ 194]   0.5)  3( 12[ 350]   0.9)  4( 16[ 974]   3.5)
  5( 12[ 350]9999.0)
 TTTTTTTTTTTTTTTTTTTTTTTTTTTTTT INT_CALC    TELAPSE        4.86 TCPU        3.35
 EEEEEEEEEE INT_CALC TERMINATION  DATE 01 12 2017 TIME 11:12:39.0

 *******************************************************************************
 Generated by CrystalWriter                                                      
 CRYSTAL - SCF - TYPE OF CALCULATION :  UNRESTRICTED OPEN SHELL
 *******************************************************************************

 CAPPA:IS1  6;IS2  6;IS3  4; K PTS MONK NET  39; SYMMOPS:K SPACE   8;G SPACE   8

 TTTTTTTTTTTTTTTTTTTTTTTTTTTTTT SDIK        TELAPSE        4.99 TCPU        3.44

 AAAAAAAAAAAAAAAAAAAAAAAAAAAAAAAAAAAAAAAAAAAAAAAAAAAAAAAAAAAAAAAAAAAAAAAAAAAAAAA
         ATOMIC WAVEFUNCTION(S)


 NUCLEAR CHARGE 19.0  SYMMETRY SPECIES            S    P    D
 N. ELECTRONS   17.0  NUMBER OF PRIMITIVE GTOS   14    9    7
                      NUMBER OF CONTRACTED GTOS   4    3    3
                      NUMBER OF CLOSED SHELLS     1    1    0
                      OPEN SHELL OCCUPATION       0    0    9

  ZNUC SCFIT  TOTAL HF ENERGY   KINETIC ENERGY   VIRIAL THEOREM ACCURACY
  19.0  24   -1.953432393E+02  1.248337040E+02 -2.564827712E+00  3.3E-06

 NUCLEAR CHARGE  6.0  SYMMETRY SPECIES            S    P
 N. ELECTRONS    8.0  NUMBER OF PRIMITIVE GTOS   10    9
                      NUMBER OF CONTRACTED GTOS   3    3
                      NUMBER OF CLOSED SHELLS     1    1
                      OPEN SHELL OCCUPATION       0    0

  ZNUC SCFIT  TOTAL HF ENERGY   KINETIC ENERGY   VIRIAL THEOREM ACCURACY
   6.0  43   -1.519668598E+01  1.229882609E+01 -2.235620852E+00  4.1E-06

 AAAAAAAAAAAAAAAAAAAAAAAAAAAAAAAAAAAAAAAAAAAAAAAAAAAAAAAAAAAAAAAAAAAAAAAAAAAAAAA

[golub002:26124] 15 more processes have sent help message help-mpi-btl-openib.txt / no device params found
[golub002:26124] Set MCA parameter "orte_base_help_aggregate" to 0 to see all help / error messages
 CHARGE NORMALIZATION FACTOR   1.00000000
 TOTAL ATOMIC CHARGES:
   0.0000000   0.0000000   0.0000000   0.0000000  17.0000000  17.0000000
  17.0000000  17.0000000   8.0000000   8.0000000   8.0000000   8.0000000
   8.0000000   8.0000000   8.0000000   8.0000000
 SUMMED SPIN DENSITY           0.00000000
 TOTAL ATOMIC SPINS  :
   0.0000000   0.0000000   0.0000000   0.0000000   1.0000000  -1.0000000
  -1.0000000   1.0000000   0.0000000   0.0000000   0.0000000   0.0000000
   0.0000000   0.0000000   0.0000000   0.0000000
 TTTTTTTTTTTTTTTTTTTTTTTTTTTTTT MOQGAD      TELAPSE        5.24 TCPU        3.69
 TTTTTTTTTTTTTTTTTTTTTTTTTTTTTT SHELLXN     TELAPSE      433.39 TCPU      431.90
 TTTTTTTTTTTTTTTTTTTTTTTTTTTTTT MONMO3      TELAPSE      435.57 TCPU      434.08
 NUMERICALLY INTEGRATED DENSITY     66.0000572683     66.0000572682
 TTTTTTTTTTTTTTTTTTTTTTTTTTTTTT NUMDFT      TELAPSE      436.30 TCPU      434.81
 CYC   0 ETOT(AU) -9.197965358607E+02 DETOT -9.20E+02 tst  0.00E+00 PX  1.00E+00
 CYCLE  0 WAVE FUNCTION SAVED IN FORTRAN UNIT 79
 TTTTTTTTTTTTTTTTTTTTTTTTTTTTTT DIIS        TELAPSE      436.53 TCPU      434.94
 TTTTTTTTTTTTTTTTTTTTTTTTTTTTTT FDIK        TELAPSE      440.02 TCPU      438.36
 SPIN LOCKING: NO ENERGY GAP COMPUTED
 TTTTTTTTTTTTTTTTTTTTTTTTTTTTTT PDIG        TELAPSE      440.28 TCPU      438.62
 CHARGE NORMALIZATION FACTOR   1.00000000
 TOTAL ATOMIC CHARGES:
   0.1584038   0.1584038   0.1584038   0.1584037  18.2602405  18.2600784
  18.2600784  18.2602405   7.2907183   7.2907183   7.2907185   7.2907185
   7.2907183   7.2907185   7.2907183   7.2907185
 SUMMED SPIN DENSITY           0.00000000
 TOTAL ATOMIC SPINS  :
   0.0000001   0.0000001   0.0000001   0.0000001   0.3608617  -0.3608682
  -0.3608682   0.3608617   0.0000016   0.0000016   0.0000016   0.0000016
   0.0000016   0.0000016   0.0000016   0.0000016
 TTTTTTTTTTTTTTTTTTTTTTTTTTTTTT MOQGAD      TELAPSE      440.31 TCPU      438.65
 TTTTTTTTTTTTTTTTTTTTTTTTTTTTTT SHELLXN     TELAPSE      878.83 TCPU      875.32
 TTTTTTTTTTTTTTTTTTTTTTTTTTTTTT MONMO3      TELAPSE      881.02 TCPU      877.50
 NUMERICALLY INTEGRATED DENSITY     66.0000426749     66.0000426668
 TTTTTTTTTTTTTTTTTTTTTTTTTTTTTT NUMDFT      TELAPSE      883.34 TCPU      879.82
 CYC   1 ETOT(AU) -9.202966952269E+02 DETOT -5.00E-01 tst  0.00E+00 PX  1.00E+00
 CYCLE  1 WAVE FUNCTION SAVED IN FORTRAN UNIT 79
 TTTTTTTTTTTTTTTTTTTTTTTTTTTTTT DIIS        TELAPSE      883.74 TCPU      880.16
 DIIS TEST: 0.11971E+00 AT SCF   CYCLE   1 - MIX   90 %
 TTTTTTTTTTTTTTTTTTTTTTTTTTTTTT FDIK        TELAPSE      884.62 TCPU      881.04
 SPIN LOCKING: NO ENERGY GAP COMPUTED
 TTTTTTTTTTTTTTTTTTTTTTTTTTTTTT PDIG        TELAPSE      884.88 TCPU      881.29
 CHARGE NORMALIZATION FACTOR   1.00000000
 TOTAL ATOMIC CHARGES:
   0.1594186   0.1594184   0.1594184   0.1594187  18.2305953  18.2304361
  18.2304361  18.2305953   7.3050336   7.3050336   7.3050321   7.3050321
   7.3050336   7.3050321   7.3050336   7.3050321
 SUMMED SPIN DENSITY           0.00000000
 TOTAL ATOMIC SPINS  :
   0.0000002   0.0000013   0.0000013   0.0000004   0.3768933  -0.3769126
  -0.3769126   0.3768933   0.0000038   0.0000038   0.0000051   0.0000051
   0.0000038   0.0000051   0.0000038   0.0000051
 TTTTTTTTTTTTTTTTTTTTTTTTTTTTTT MOQGAD      TELAPSE      884.91 TCPU      881.33
 TTTTTTTTTTTTTTTTTTTTTTTTTTTTTT SHELLXN     TELAPSE     1321.30 TCPU     1317.40
 TTTTTTTTTTTTTTTTTTTTTTTTTTTTTT MONMO3      TELAPSE     1323.48 TCPU     1319.58
 NUMERICALLY INTEGRATED DENSITY     66.0000416366     66.0000416284
 TTTTTTTTTTTTTTTTTTTTTTTTTTTTTT NUMDFT      TELAPSE     1325.79 TCPU     1321.89
 CYC   2 ETOT(AU) -9.203068129529E+02 DETOT -1.01E-02 tst  5.78E-05 PX  2.79E-02
 CYCLE  2 WAVE FUNCTION SAVED IN FORTRAN UNIT 79
 TTTTTTTTTTTTTTTTTTTTTTTTTTTTTT DIIS        TELAPSE     1326.19 TCPU     1322.28
 DIIS TEST: 0.10046E+00 AT SCF   CYCLE   2 - DIIS ACTIVE - HISTORY:     2 CYCLES
 TTTTTTTTTTTTTTTTTTTTTTTTTTTTTT FDIK        TELAPSE     1327.08 TCPU     1323.17
 SPIN LOCKING: NO ENERGY GAP COMPUTED
 TTTTTTTTTTTTTTTTTTTTTTTTTTTTTT PDIG        TELAPSE     1327.34 TCPU     1323.42
 CHARGE NORMALIZATION FACTOR   1.00000000
 TOTAL ATOMIC CHARGES:
   0.1714718   0.1714560   0.1714560   0.1714647  18.0335557  18.0339051
  18.0339051  18.0335557   7.3974003   7.3974003   7.3974071   7.3974071
   7.3974003   7.3974071   7.3974003   7.3974071
 SUMMED SPIN DENSITY           0.00000000
 TOTAL ATOMIC SPINS  :
   0.0000045   0.0000005   0.0000005   0.0000129   0.4770717  -0.4769783
  -0.4769783   0.4770717  -0.0000214  -0.0000214  -0.0000299  -0.0000299
  -0.0000214  -0.0000299  -0.0000214  -0.0000299
 TTTTTTTTTTTTTTTTTTTTTTTTTTTTTT MOQGAD      TELAPSE     1327.38 TCPU     1323.46
 TTTTTTTTTTTTTTTTTTTTTTTTTTTTTT SHELLXN     TELAPSE     1763.70 TCPU     1759.49
 TTTTTTTTTTTTTTTTTTTTTTTTTTTTTT MONMO3      TELAPSE     1765.89 TCPU     1761.68
 NUMERICALLY INTEGRATED DENSITY     66.0000306533     66.0000306538
 TTTTTTTTTTTTTTTTTTTTTTTTTTTTTT NUMDFT      TELAPSE     1768.20 TCPU     1763.99
 CYC   3 ETOT(AU) -9.203466335151E+02 DETOT -3.98E-02 tst  3.28E-03 PX  1.82E-01
 CYCLE  3 WAVE FUNCTION SAVED IN FORTRAN UNIT 79
 TTTTTTTTTTTTTTTTTTTTTTTTTTTTTT DIIS        TELAPSE     1768.60 TCPU     1764.36
 DIIS TEST: 0.10313E-01 AT SCF   CYCLE   3 - DIIS ACTIVE - HISTORY:     3 CYCLES
 TTTTTTTTTTTTTTTTTTTTTTTTTTTTTT FDIK        TELAPSE     1769.50 TCPU     1765.22
 SPIN LOCKING: NO ENERGY GAP COMPUTED
 TTTTTTTTTTTTTTTTTTTTTTTTTTTTTT PDIG        TELAPSE     1769.76 TCPU     1765.47
 CHARGE NORMALIZATION FACTOR   1.00000000
 TOTAL ATOMIC CHARGES:
   0.1712522   0.1712508   0.1712508   0.1712505  18.0433529  18.0427482
  18.0427482  18.0433529   7.3928468   7.3928468   7.3928516   7.3928516
   7.3928468   7.3928516   7.3928468   7.3928516
 SUMMED SPIN DENSITY           0.00000000
 TOTAL ATOMIC SPINS  :
   0.0000046   0.0000040   0.0000040   0.0000083   0.5241233  -0.5243567
  -0.5243567   0.5241233   0.0000586   0.0000586   0.0000529   0.0000529
   0.0000586   0.0000529   0.0000586   0.0000529
 TTTTTTTTTTTTTTTTTTTTTTTTTTTTTT MOQGAD      TELAPSE     1769.79 TCPU     1765.51
 TTTTTTTTTTTTTTTTTTTTTTTTTTTTTT SHELLXN     TELAPSE     2205.74 TCPU     2201.53
 TTTTTTTTTTTTTTTTTTTTTTTTTTTTTT MONMO3      TELAPSE     2207.92 TCPU     2203.71
 NUMERICALLY INTEGRATED DENSITY     66.0000308815     66.0000308767
 TTTTTTTTTTTTTTTTTTTTTTTTTTTTTT NUMDFT      TELAPSE     2210.90 TCPU     2206.68
 CYC   4 ETOT(AU) -9.203506206715E+02 DETOT -3.99E-03 tst  8.49E-04 PX  6.43E-02
 CYCLE  4 WAVE FUNCTION SAVED IN FORTRAN UNIT 79
 TTTTTTTTTTTTTTTTTTTTTTTTTTTTTT DIIS        TELAPSE     2211.59 TCPU     2207.36
 DIIS TEST: 0.15651E-01 AT SCF   CYCLE   4 - DIIS ACTIVE - HISTORY:     4 CYCLES
 TTTTTTTTTTTTTTTTTTTTTTTTTTTTTT FDIK        TELAPSE     2212.87 TCPU     2208.64
 SPIN LOCKING: NO ENERGY GAP COMPUTED
 TTTTTTTTTTTTTTTTTTTTTTTTTTTTTT PDIG        TELAPSE     2213.13 TCPU     2208.90
 CHARGE NORMALIZATION FACTOR   1.00000000
 TOTAL ATOMIC CHARGES:
   0.1708191   0.1708191   0.1708191   0.1708164  18.0566454  18.0570496
  18.0570496  18.0566454   7.3861676   7.3861676   7.3861664   7.3861664
   7.3861676   7.3861664   7.3861676   7.3861664
 SUMMED SPIN DENSITY           0.00000000
 TOTAL ATOMIC SPINS  :
  -0.0000056  -0.0000032  -0.0000032  -0.0000042   0.5245799  -0.5244236
  -0.5244236   0.5245799  -0.0000362  -0.0000362  -0.0000379  -0.0000379
  -0.0000362  -0.0000379  -0.0000362  -0.0000379
 TTTTTTTTTTTTTTTTTTTTTTTTTTTTTT MOQGAD      TELAPSE     2213.16 TCPU     2208.93
 TTTTTTTTTTTTTTTTTTTTTTTTTTTTTT SHELLXN     TELAPSE     2649.99 TCPU     2645.39
 TTTTTTTTTTTTTTTTTTTTTTTTTTTTTT MONMO3      TELAPSE     2652.17 TCPU     2647.57
 NUMERICALLY INTEGRATED DENSITY     66.0000314588     66.0000314476
 TTTTTTTTTTTTTTTTTTTTTTTTTTTTTT NUMDFT      TELAPSE     2654.54 TCPU     2649.93
 CYC   5 ETOT(AU) -9.203522781076E+02 DETOT -1.66E-03 tst  2.60E-05 PX  1.22E-02
 CYCLE  5 WAVE FUNCTION SAVED IN FORTRAN UNIT 79
 TTTTTTTTTTTTTTTTTTTTTTTTTTTTTT DIIS        TELAPSE     2654.94 TCPU     2650.24
 DIIS TEST: 0.15887E-02 AT SCF   CYCLE   5 - DIIS ACTIVE - HISTORY:     5 CYCLES
 TTTTTTTTTTTTTTTTTTTTTTTTTTTTTT FDIK        TELAPSE     2655.75 TCPU     2651.05
 SPIN LOCKING: NO ENERGY GAP COMPUTED
 TTTTTTTTTTTTTTTTTTTTTTTTTTTTTT PDIG        TELAPSE     2656.01 TCPU     2651.31
 CHARGE NORMALIZATION FACTOR   1.00000000
 TOTAL ATOMIC CHARGES:
   0.1705004   0.1705011   0.1705011   0.1705001  18.0391956  18.0381633
  18.0381633  18.0391956   7.3954086   7.3954086   7.3954113   7.3954113
   7.3954086   7.3954113   7.3954086   7.3954113
 SUMMED SPIN DENSITY           0.00000000
 TOTAL ATOMIC SPINS  :
   0.0000032   0.0000028   0.0000028   0.0000033   0.5558336  -0.5562686
  -0.5562686   0.5558336   0.0001062   0.0001062   0.0001082   0.0001082
   0.0001062   0.0001082   0.0001062   0.0001082
 TTTTTTTTTTTTTTTTTTTTTTTTTTTTTT MOQGAD      TELAPSE     2656.04 TCPU     2651.34
 TTTTTTTTTTTTTTTTTTTTTTTTTTTTTT SHELLXN     TELAPSE     3092.08 TCPU     3087.41
 TTTTTTTTTTTTTTTTTTTTTTTTTTTTTT MONMO3      TELAPSE     3094.26 TCPU     3089.60
 NUMERICALLY INTEGRATED DENSITY     66.0000318143     66.0000318104
 TTTTTTTTTTTTTTTTTTTTTTTTTTTTTT NUMDFT      TELAPSE     3096.58 TCPU     3091.91
 CYC   6 ETOT(AU) -9.203531533621E+02 DETOT -8.75E-04 tst  3.57E-04 PX  3.94E-02
 CYCLE  6 WAVE FUNCTION SAVED IN FORTRAN UNIT 79
 TTTTTTTTTTTTTTTTTTTTTTTTTTTTTT DIIS        TELAPSE     3096.97 TCPU     3092.26
 DIIS TEST: 0.12050E-02 AT SCF   CYCLE   6 - DIIS ACTIVE - HISTORY:     6 CYCLES
 TTTTTTTTTTTTTTTTTTTTTTTTTTTTTT FDIK        TELAPSE     3097.86 TCPU     3093.15
 SPIN LOCKING: NO ENERGY GAP COMPUTED
 TTTTTTTTTTTTTTTTTTTTTTTTTTTTTT PDIG        TELAPSE     3098.12 TCPU     3093.41
 CHARGE NORMALIZATION FACTOR   1.00000000
 TOTAL ATOMIC CHARGES:
   0.1713876   0.1713872   0.1713872   0.1713871  18.0413713  18.0428892
  18.0428892  18.0413713   7.3932414   7.3932414   7.3932411   7.3932411
   7.3932414   7.3932411   7.3932414   7.3932411
 SUMMED SPIN DENSITY           0.00000000
 TOTAL ATOMIC SPINS  :
  -0.0000032  -0.0000031  -0.0000031  -0.0000033   0.5592189  -0.5586449
  -0.5586449   0.5592189  -0.0001416  -0.0001416  -0.0001422  -0.0001422
  -0.0001416  -0.0001422  -0.0001416  -0.0001422
 TTTTTTTTTTTTTTTTTTTTTTTTTTTTTT MOQGAD      TELAPSE     3098.15 TCPU     3093.44
 TTTTTTTTTTTTTTTTTTTTTTTTTTTTTT SHELLXN     TELAPSE     3535.02 TCPU     3529.81
 TTTTTTTTTTTTTTTTTTTTTTTTTTTTTT MONMO3      TELAPSE     3537.20 TCPU     3531.99
 NUMERICALLY INTEGRATED DENSITY     66.0000316392     66.0000316225
 TTTTTTTTTTTTTTTTTTTTTTTTTTTTTT NUMDFT      TELAPSE     3539.55 TCPU     3534.33
 CYC   7 ETOT(AU) -9.203532889556E+02 DETOT -1.36E-04 tst  4.91E-06 PX  4.51E-03
 CYCLE  7 WAVE FUNCTION SAVED IN FORTRAN UNIT 79
 TTTTTTTTTTTTTTTTTTTTTTTTTTTTTT DIIS        TELAPSE     3539.94 TCPU     3534.70
 DIIS TEST: 0.10568E-03 AT SCF   CYCLE   7 - DIIS ACTIVE - HISTORY:     7 CYCLES
 TTTTTTTTTTTTTTTTTTTTTTTTTTTTTT FDIK        TELAPSE     3540.85 TCPU     3535.59
 SPIN LOCKING: NO ENERGY GAP COMPUTED
 TTTTTTTTTTTTTTTTTTTTTTTTTTTTTT PDIG        TELAPSE     3541.10 TCPU     3535.85
 CHARGE NORMALIZATION FACTOR   1.00000000
 TOTAL ATOMIC CHARGES:
   0.1710405   0.1710406   0.1710406   0.1710403  18.0441624  18.0405853
  18.0405853  18.0441624   7.3932928   7.3932928   7.3932929   7.3932929
   7.3932928   7.3932929   7.3932928   7.3932929
 SUMMED SPIN DENSITY           0.00000000
 TOTAL ATOMIC SPINS  :
   0.0000049   0.0000049   0.0000049   0.0000050   0.5603635  -0.5617372
  -0.5617372   0.5603635   0.0003409   0.0003409   0.0003410   0.0003410
   0.0003409   0.0003410   0.0003409   0.0003410
 TTTTTTTTTTTTTTTTTTTTTTTTTTTTTT MOQGAD      TELAPSE     3541.14 TCPU     3535.88
 TTTTTTTTTTTTTTTTTTTTTTTTTTTTTT SHELLXN     TELAPSE     3977.11 TCPU     3971.94
 TTTTTTTTTTTTTTTTTTTTTTTTTTTTTT MONMO3      TELAPSE     3979.29 TCPU     3974.12
 NUMERICALLY INTEGRATED DENSITY     66.0000318092     66.0000318157
 TTTTTTTTTTTTTTTTTTTTTTTTTTTTTT NUMDFT      TELAPSE     3981.63 TCPU     3976.45
 CYC   8 ETOT(AU) -9.203532955731E+02 DETOT -6.62E-06 tst  2.66E-06 PX  2.79E-03
 CYCLE  8 WAVE FUNCTION SAVED IN FORTRAN UNIT 79
 TTTTTTTTTTTTTTTTTTTTTTTTTTTTTT DIIS        TELAPSE     3982.02 TCPU     3976.83
 DIIS TEST: 0.10162E-03 AT SCF   CYCLE   8 - DIIS ACTIVE - HISTORY:     8 CYCLES
 TTTTTTTTTTTTTTTTTTTTTTTTTTTTTT FDIK        TELAPSE     3982.86 TCPU     3977.67
 SPIN LOCKING: NO ENERGY GAP COMPUTED
 TTTTTTTTTTTTTTTTTTTTTTTTTTTTTT PDIG        TELAPSE     3983.11 TCPU     3977.93
 CHARGE NORMALIZATION FACTOR   1.00000000
 TOTAL ATOMIC CHARGES:
   0.1710044   0.1710045   0.1710045   0.1710044  18.0419240  18.0426804
  18.0426804  18.0419240   7.3933466   7.3933466   7.3933467   7.3933467
   7.3933466   7.3933467   7.3933466   7.3933467
 SUMMED SPIN DENSITY           0.00000000
 TOTAL ATOMIC SPINS  :
  -0.0000014  -0.0000015  -0.0000015  -0.0000015   0.5613820  -0.5610977
  -0.5610977   0.5613820  -0.0000703  -0.0000703  -0.0000703  -0.0000703
  -0.0000703  -0.0000703  -0.0000703  -0.0000703
 TTTTTTTTTTTTTTTTTTTTTTTTTTTTTT MOQGAD      TELAPSE     3983.15 TCPU     3977.96
 TTTTTTTTTTTTTTTTTTTTTTTTTTTTTT SHELLXN     TELAPSE     4421.07 TCPU     4414.02
 TTTTTTTTTTTTTTTTTTTTTTTTTTTTTT MONMO3      TELAPSE     4423.25 TCPU     4416.20
 NUMERICALLY INTEGRATED DENSITY     66.0000318340     66.0000318209
 TTTTTTTTTTTTTTTTTTTTTTTTTTTTTT NUMDFT      TELAPSE     4425.55 TCPU     4418.51
 CYC   9 ETOT(AU) -9.203533045429E+02 DETOT -8.97E-06 tst  4.54E-07 PX  1.37E-03
 CYCLE  9 WAVE FUNCTION SAVED IN FORTRAN UNIT 79
 TTTTTTTTTTTTTTTTTTTTTTTTTTTTTT DIIS        TELAPSE     4425.97 TCPU     4418.91
 DIIS TEST: 0.51571E-05 AT SCF   CYCLE   9 - DIIS ACTIVE - HISTORY:     9 CYCLES
 TTTTTTTTTTTTTTTTTTTTTTTTTTTTTT FDIK        TELAPSE     4426.90 TCPU     4419.84
 SPIN LOCKING: NO ENERGY GAP COMPUTED
 TTTTTTTTTTTTTTTTTTTTTTTTTTTTTT PDIG        TELAPSE     4427.15 TCPU     4420.10
 CHARGE NORMALIZATION FACTOR   1.00000000
 TOTAL ATOMIC CHARGES:
   0.1710336   0.1710336   0.1710336   0.1710335  18.0422907  18.0423122
  18.0423122  18.0422907   7.3933324   7.3933324   7.3933326   7.3933326
   7.3933324   7.3933326   7.3933324   7.3933326
 SUMMED SPIN DENSITY           0.00000000
 TOTAL ATOMIC SPINS  :
  -0.0000003  -0.0000003  -0.0000003  -0.0000003   0.5613918  -0.5613961
  -0.5613961   0.5613918   0.0000012   0.0000012   0.0000012   0.0000012
   0.0000012   0.0000012   0.0000012   0.0000012
 TTTTTTTTTTTTTTTTTTTTTTTTTTTTTT MOQGAD      TELAPSE     4427.19 TCPU     4420.13
 TTTTTTTTTTTTTTTTTTTTTTTTTTTTTT SHELLXN     TELAPSE     4863.17 TCPU     4856.18
 TTTTTTTTTTTTTTTTTTTTTTTTTTTTTT MONMO3      TELAPSE     4865.35 TCPU     4858.36
 NUMERICALLY INTEGRATED DENSITY     66.0000318236     66.0000318139
 TTTTTTTTTTTTTTTTTTTTTTTTTTTTTT NUMDFT      TELAPSE     4867.66 TCPU     4860.67
 CYC  10 ETOT(AU) -9.203533051283E+02 DETOT -5.85E-07 tst  1.73E-08 PX  2.74E-04
 CYCLE 10 WAVE FUNCTION SAVED IN FORTRAN UNIT 79
 TTTTTTTTTTTTTTTTTTTTTTTTTTTTTT DIIS        TELAPSE     4868.07 TCPU     4861.06
 DIIS TEST: 0.62078E-07 AT SCF   CYCLE  10 - DIIS ACTIVE - HISTORY:    10 CYCLES
 TTTTTTTTTTTTTTTTTTTTTTTTTTTTTT FDIK        TELAPSE     4869.08 TCPU     4862.07
 SPIN LOCKING: NO ENERGY GAP COMPUTED
 TTTTTTTTTTTTTTTTTTTTTTTTTTTTTT PDIG        TELAPSE     4869.34 TCPU     4862.33
 CHARGE NORMALIZATION FACTOR   1.00000000
 TOTAL ATOMIC CHARGES:
   0.1710318   0.1710318   0.1710318   0.1710317  18.0422999  18.0423010
  18.0423010  18.0422999   7.3933338   7.3933338   7.3933340   7.3933340
   7.3933338   7.3933340   7.3933338   7.3933340
 SUMMED SPIN DENSITY           0.00000000
 TOTAL ATOMIC SPINS  :
  -0.0000003  -0.0000003  -0.0000003  -0.0000003   0.5614748  -0.5614788
  -0.5614788   0.5614748   0.0000011   0.0000011   0.0000012   0.0000012
   0.0000011   0.0000012   0.0000011   0.0000012
 TTTTTTTTTTTTTTTTTTTTTTTTTTTTTT MOQGAD      TELAPSE     4869.38 TCPU     4862.36
 TTTTTTTTTTTTTTTTTTTTTTTTTTTTTT SHELLXN     TELAPSE     5308.47 TCPU     5298.76
 TTTTTTTTTTTTTTTTTTTTTTTTTTTTTT MONMO3      TELAPSE     5310.66 TCPU     5300.94
 NUMERICALLY INTEGRATED DENSITY     66.0000318244     66.0000318146
 TTTTTTTTTTTTTTTTTTTTTTTTTTTTTT NUMDFT      TELAPSE     5312.97 TCPU     5303.25
 CYC  11 ETOT(AU) -9.203533051319E+02 DETOT -3.58E-09 tst  2.44E-09 PX  1.04E-04
 CYCLE 11 WAVE FUNCTION SAVED IN FORTRAN UNIT 79
 TTTTTTTTTTTTTTTTTTTTTTTTTTTTTT DIIS        TELAPSE     5313.34 TCPU     5303.61
 DIIS TEST: 0.26889E-08 AT SCF   CYCLE  11 - DIIS ACTIVE - HISTORY:    11 CYCLES
 TTTTTTTTTTTTTTTTTTTTTTTTTTTTTT FDIK        TELAPSE     5314.30 TCPU     5304.57
 SPIN LOCKING: NO ENERGY GAP COMPUTED
 TTTTTTTTTTTTTTTTTTTTTTTTTTTTTT PDIG        TELAPSE     5314.56 TCPU     5304.83
 CHARGE NORMALIZATION FACTOR   1.00000000
 TOTAL ATOMIC CHARGES:
   0.1710317   0.1710317   0.1710317   0.1710316  18.0422885  18.0423150
  18.0423150  18.0422885   7.3933331   7.3933331   7.3933334   7.3933334
   7.3933331   7.3933334   7.3933331   7.3933334
 SUMMED SPIN DENSITY          -0.00000000
 TOTAL ATOMIC SPINS  :
  -0.0000003  -0.0000003  -0.0000003  -0.0000003   0.5614707  -0.5614738
  -0.5614738   0.5614707   0.0000009   0.0000009   0.0000010   0.0000010
   0.0000009   0.0000010   0.0000009   0.0000010
 TTTTTTTTTTTTTTTTTTTTTTTTTTTTTT MOQGAD      TELAPSE     5314.59 TCPU     5304.86
 TTTTTTTTTTTTTTTTTTTTTTTTTTTTTT SHELLXN     TELAPSE     5751.07 TCPU     5740.98
 TTTTTTTTTTTTTTTTTTTTTTTTTTTTTT MONMO3      TELAPSE     5753.25 TCPU     5743.16
 NUMERICALLY INTEGRATED DENSITY     66.0000318240     66.0000318144
 TTTTTTTTTTTTTTTTTTTTTTTTTTTTTT NUMDFT      TELAPSE     5755.58 TCPU     5745.49
 CYC  12 ETOT(AU) -9.203533051326E+02 DETOT -7.42E-10 tst  6.54E-11 PX  1.69E-05
 CYCLE 12 WAVE FUNCTION SAVED IN FORTRAN UNIT 79
 TTTTTTTTTTTTTTTTTTTTTTTTTTTTTT DIIS        TELAPSE     5755.96 TCPU     5745.84
 DIIS TEST: 0.11384E-08 AT SCF   CYCLE  12 - DIIS ACTIVE - HISTORY:    12 CYCLES
 TTTTTTTTTTTTTTTTTTTTTTTTTTTTTT FDIK        TELAPSE     5756.81 TCPU     5746.68
 SPIN LOCKING: NO ENERGY GAP COMPUTED
 TTTTTTTTTTTTTTTTTTTTTTTTTTTTTT PDIG        TELAPSE     5757.06 TCPU     5746.94
 CHARGE NORMALIZATION FACTOR   1.00000000
 TOTAL ATOMIC CHARGES:
   0.1710318   0.1710318   0.1710318   0.1710317  18.0422955  18.0423089
  18.0423089  18.0422955   7.3933329   7.3933329   7.3933331   7.3933331
   7.3933329   7.3933331   7.3933329   7.3933331
 SUMMED SPIN DENSITY          -0.00000000
 TOTAL ATOMIC SPINS  :
  -0.0000003  -0.0000003  -0.0000003  -0.0000003   0.5614674  -0.5614710
  -0.5614710   0.5614674   0.0000010   0.0000010   0.0000011   0.0000011
   0.0000010   0.0000011   0.0000010   0.0000011
 TTTTTTTTTTTTTTTTTTTTTTTTTTTTTT MOQGAD      TELAPSE     5757.10 TCPU     5746.97
 TTTTTTTTTTTTTTTTTTTTTTTTTTTTTT SHELLXN     TELAPSE     6193.10 TCPU     6183.04
 TTTTTTTTTTTTTTTTTTTTTTTTTTTTTT MONMO3      TELAPSE     6195.28 TCPU     6185.22
 NUMERICALLY INTEGRATED DENSITY     66.0000318239     66.0000318142
 TTTTTTTTTTTTTTTTTTTTTTTTTTTTTT NUMDFT      TELAPSE     6197.59 TCPU     6187.53
 CYC  13 ETOT(AU) -9.203533051331E+02 DETOT -5.05E-10 tst  1.04E-11 PX  5.78E-06
 CYCLE 13 WAVE FUNCTION SAVED IN FORTRAN UNIT 79
 TTTTTTTTTTTTTTTTTTTTTTTTTTTTTT DIIS        TELAPSE     6197.97 TCPU     6187.88
 DIIS TEST: 0.29837E-10 AT SCF   CYCLE  13 - DIIS ACTIVE - HISTORY:    13 CYCLES
 TTTTTTTTTTTTTTTTTTTTTTTTTTTTTT FDIK        TELAPSE     6198.73 TCPU     6188.63
 SPIN LOCKING: NO ENERGY GAP COMPUTED
 TTTTTTTTTTTTTTTTTTTTTTTTTTTTTT PDIG        TELAPSE     6198.98 TCPU     6188.89
 CHARGE NORMALIZATION FACTOR   1.00000000
 TOTAL ATOMIC CHARGES:
   0.1710318   0.1710318   0.1710318   0.1710317  18.0422948  18.0423098
  18.0423098  18.0422948   7.3933328   7.3933328   7.3933331   7.3933331
   7.3933328   7.3933331   7.3933328   7.3933331
 SUMMED SPIN DENSITY          -0.00000000
 TOTAL ATOMIC SPINS  :
  -0.0000003  -0.0000003  -0.0000003  -0.0000003   0.5614665  -0.5614700
  -0.5614700   0.5614665   0.0000010   0.0000010   0.0000011   0.0000011
   0.0000010   0.0000011   0.0000010   0.0000011
 TTTTTTTTTTTTTTTTTTTTTTTTTTTTTT MOQGAD      TELAPSE     6199.02 TCPU     6188.92
 TTTTTTTTTTTTTTTTTTTTTTTTTTTTTT SHELLXN     TELAPSE     6634.97 TCPU     6624.91
 TTTTTTTTTTTTTTTTTTTTTTTTTTTTTT MONMO3      TELAPSE     6637.16 TCPU     6627.10
 NUMERICALLY INTEGRATED DENSITY     66.0000318239     66.0000318142
 TTTTTTTTTTTTTTTTTTTTTTTTTTTTTT NUMDFT      TELAPSE     6639.47 TCPU     6629.41
 CYC  14 ETOT(AU) -9.203533051331E+02 DETOT  2.17E-11 tst  5.91E-13 PX  1.68E-06
 CYCLE 14 WAVE FUNCTION SAVED IN FORTRAN UNIT 79
 TTTTTTTTTTTTTTTTTTTTTTTTTTTTTT DIIS        TELAPSE     6639.86 TCPU     6629.76
 DIIS TEST: 0.44756E-11 AT SCF   CYCLE  14 - DIIS ACTIVE - HISTORY:    14 CYCLES
 TTTTTTTTTTTTTTTTTTTTTTTTTTTTTT FDIK        TELAPSE     6640.58 TCPU     6630.48
 SPIN LOCKING: NO ENERGY GAP COMPUTED
 TTTTTTTTTTTTTTTTTTTTTTTTTTTTTT PDIG        TELAPSE     6640.84 TCPU     6630.74
 CHARGE NORMALIZATION FACTOR   1.00000000
 TOTAL ATOMIC CHARGES:
   0.1710318   0.1710318   0.1710318   0.1710317  18.0422949  18.0423098
  18.0423098  18.0422949   7.3933328   7.3933328   7.3933331   7.3933331
   7.3933328   7.3933331   7.3933328   7.3933331
 SUMMED SPIN DENSITY          -0.00000000
 TOTAL ATOMIC SPINS  :
  -0.0000003  -0.0000003  -0.0000003  -0.0000003   0.5614661  -0.5614697
  -0.5614697   0.5614661   0.0000010   0.0000010   0.0000011   0.0000011
   0.0000010   0.0000011   0.0000010   0.0000011
 TTTTTTTTTTTTTTTTTTTTTTTTTTTTTT MOQGAD      TELAPSE     6640.88 TCPU     6630.77
 TTTTTTTTTTTTTTTTTTTTTTTTTTTTTT SHELLXN     TELAPSE     7078.71 TCPU     7066.98
 +++ ENERGIES IN A.U. +++
 ::: EXT EL-POLE                                  -4.6760468776084E+03
 ::: EXT EL-SPHEROPOLE                             2.2820350891916E+01
 ::: BIELET ZONE E-E                               5.0950881547194E+03
 ::: TOTAL E-E                                     4.4186162800290E+02
 ::: TOTAL E-N + N-E                              -1.4614285671273E+03
 ::: TOTAL N-N                                    -4.1431339568884E+02
 ::: KINETIC ENERGY                                5.9606129338448E+02
 ::: PSEUDO TOTAL   ENERGY                        -8.3781904142879E+02
 ::: VIRIAL COEFFICIENT                            8.3139614779933E-01
 TTTTTTTTTTTTTTTTTTTTTTTTTTTTTT MONMO3      TELAPSE     7080.89 TCPU     7069.16
 NUMERICALLY INTEGRATED DENSITY     66.0000318239     66.0000318142
 TTTTTTTTTTTTTTTTTTTTTTTTTTTTTT NUMDFT      TELAPSE     7083.19 TCPU     7071.46
 CYC  15 ETOT(AU) -9.203533051331E+02 DETOT -1.31E-11 tst  2.43E-14 PX  1.68E-06

 == SCF ENDED - CONVERGENCE ON ENERGY      E(AU) -9.2035330513310E+02 CYCLES  15


 ENERGY EXPRESSION=HARTREE+FOCK EXCH*0.00000+(HSESOL     EXCH)*1.00000+PBESOL     CORR

 FINITE TEMPERATURE DFT CALCULATION 
 TEMPERATURE      (T)    1.000000000000E-13 HARTREE 
 ENERGY           (E)   -9.203533051331E+02
 FREE ENERGY      (F)   -9.203533051331E+02
 ELECTRON ENTROPY (S)    0.000000000000E+00
 (E(T)+F(T))/2    (E0)  -9.203533051331E+02


 TOTAL ENERGY(DFT)(AU)( 15) -9.2035330513310E+02 DE-1.3E-11 tester 2.4E-14
 TTTTTTTTTTTTTTTTTTTTTTTTTTTTTT EDFT        TELAPSE     7083.19 TCPU     7071.46
 EIGENVECTORS IN FORTRAN UNIT 10
 TTTTTTTTTTTTTTTTTTTTTTTTTTTTTT END         TELAPSE     7083.78 TCPU     7071.92
 EEEEEEEEEE TERMINATION  DATE 01 12 2017 TIME 13:10:37.9
NODE    0 CPU TIME =      7071.925
NODE    1 CPU TIME =      7077.884
NODE    2 CPU TIME =      7076.215
NODE    3 CPU TIME =      7078.403
NODE    4 CPU TIME =      7079.544
NODE    5 CPU TIME =      7077.129
NODE    6 CPU TIME =      7076.952
NODE    7 CPU TIME =      7074.250
NODE    8 CPU TIME =      7076.503
NODE    9 CPU TIME =      7078.435
NODE   10 CPU TIME =      7079.154
NODE   11 CPU TIME =      7079.580
NODE   12 CPU TIME =      7078.424
NODE   13 CPU TIME =      7074.363
NODE   14 CPU TIME =      7080.108
NODE   15 CPU TIME =      7080.035
    TOTAL CPU TIME =    113238.902
