--------------------------------------------------------------------------
WARNING: No preset parameters were found for the device that Open MPI
detected:

  Local host:            golub091
  Device name:           mlx4_0
  Device vendor ID:      0x02c9
  Device vendor part ID: 4099

Default device parameters will be used, which may result in lower
performance.  You can edit any of the files specified by the
btl_openib_device_param_files MCA parameter to set values for your
device.

NOTE: You can turn off this warning by setting the MCA parameter
      btl_openib_warn_no_device_params_found to 0.
--------------------------------------------------------------------------
 PROCESS            6  OF           32  WORKING
 PROCESS            9  OF           32  WORKING
 PROCESS           15  OF           32  WORKING
 PROCESS            2  OF           32  WORKING
 PROCESS           12  OF           32  WORKING
 PROCESS           13  OF           32  WORKING
 PROCESS            4  OF           32  WORKING
 PROCESS            3  OF           32  WORKING
 PROCESS            5  OF           32  WORKING
 PROCESS           11  OF           32  WORKING
 PROCESS           10  OF           32  WORKING
 PROCESS            0  OF           32  WORKING

         
 *******************************************************************************
 *                                                                             *
 *                               CRYSTAL17                                     *
 *                      public : 1.0.1 - Jun 21st, 2017                        *
 *                       HTTP://WWW.CRYSTAL.UNITO.IT                           *
 *                                                                             *
 *                              MAIN AUTHORS                                   *
 *                                                                             *
 *  R. DOVESI(1,11), V.R. SAUNDERS(2), C. ROETTI(1,11), R. ORLANDO(1,11),      *
 *  C.M. ZICOVICH-WILSON(1,3), F. PASCALE(4), B. CIVALLERI(1,11),              *
 *  K. DOLL(5), N.M. HARRISON(2,6), I.J. BUSH(7), Ph. D'ARCO(8),               *
 *  M. LLUNELL(9), M. CAUSA'(10), Y. NOEL(8), L. MASCHIO(1,11), A. ERBA(1,11)  *
 *  M. RE'RAT(14), S. CASASSA(1,11)                                            *
 *                                                                             *
 *        CONTRIBUTIONS TO THE CODE HAVE ALSO BEEN GIVEN BY                    *
 *                                                                             *
 *  M. FERRABONE(1,11), M. DE LA PIERRE(1,11), M. FERRERO(1,11),               *
 *  J. BAIMA(1,11), E. ALBANESE(1,11), M.F. PEINTINGER(12), R. BAST(13),       *
 *  B. KIRTMAN(15), V. LACIVITA(1,11), R. DEMICHELIS(1,16)                     *
 *  G. BRANDEBURG(17), S. SALUSTRO(1,11), G. SANSONE(1,11)                     *
 *  M.T. RUGGIERO(18)                                                          *
 *                                                                             *
 * (1) THEORETICAL CHEMISTRY GROUP - UNIVERSITA' DI TORINO - TORINO (ITALY)    *

 * (2) COMPUTATIONAL SCIENCE & ENGINEERING DEPARTMENT - STFC DARESBURY (UK)    *
 * (3) UNIVERSIDAD AUTONOMA DEL ESTADO DE MORELOS - CUERNAVACA (MEXICO)        *
 * (4) UNIVERSITE' DE LORRAINE - NANCY (FRANCE)                                *
 * (5) UNIVERSITAET STUTTGART- STUTTGART (GERMANY)                             *
 * (6) IMPERIAL COLLEGE - LONDON (UK)                                          *
 * (7) OXFORD E-RESEARCH CENTRE - OXFORD (UK)                                  *
 * (8) UPMC - SORBONNE UNIVERSITES - PARIS (FRANCE)                            *
 * (9) UNIVERSIDAD DE BARCELONA - BARCELONA (SPAIN)                            *
 *(10) UNIVERSITA' DI NAPOLI "FEDERICO II" - NAPOLI (ITALY)                    *
 *(11) NIS - NANOSTRUCTURED INTERFACES AND SURFACES - TORINO (ITALY)           *
 *(12) MPI FUER CHEMISCHE ENERGIEKONVERSION - MUELHEIM AN DER RUHR (GERMANY)   *
 *(13) UNIVERSITY OF TROMSO - TROMSO (NORWAY)                                  *
 *(14) UNIVERSITE' DE PAU ET DES PAYS DE L'ADOUR - PAU (FRANCE)                *
 *(15) UNIVERSITY OF CALIFORNIA SANTA BARBARA - SANTA BARBARA (USA)            *
 *(16) CURTIN UNIVERSITY - PERTH (AUSTRALIA)                                   *
 *(17) UNIVERSITY COLLEGE LONDON - LONDON (UK)                                 *
 *(18) CAMBRIDGE UNIVERSITY - CAMBRIDGE (UK)                                   *
 *                                                                             *
 *******************************************************************************
 EEEEEEEEEE STARTING  DATE 22 01 2018 TIME 13:02:46.6
 Generated by CrystalWriter                                                      
 PROCESS            1  OF           32  WORKING
 PROCESS            8  OF           32  WORKING
 PROCESS           14  OF           32  WORKING

 CRYSTAL CALCULATION
 (INPUT ACCORDING TO THE INTERNATIONAL TABLES FOR X-RAY CRYSTALLOGRAPHY)
 CRYSTAL FAMILY                       :  TETRAGONAL  
 CRYSTAL CLASS  (GROTH - 1921)        :  DITETRAGONAL DIPYRAMIDAL             

 SPACE GROUP (CENTROSYMMETRIC)        :  P 4/M M M       

 LATTICE PARAMETERS  (ANGSTROMS AND DEGREES) - CONVENTIONAL CELL
        A           B           C        ALPHA        BETA       GAMMA
     3.97088     3.97088     3.38540    90.00000    90.00000    90.00000


 NUMBER OF IRREDUCIBLE ATOMS IN THE CONVENTIONAL CELL:    4

 INPUT COORDINATES

 ATOM AT. N.              COORDINATES
   1 238     0.000000000000E+00  0.000000000000E+00  5.000000000000E-01
   2 229     5.000000000000E-01  5.000000000000E-01  0.000000000000E+00
   3 208     0.000000000000E+00  5.000000000000E-01  0.000000000000E+00
   4 208     5.000000000000E-01  0.000000000000E+00  0.000000000000E+00

 *******************************************************************************

 << INFORMATION >>: FROM NOW ON, ALL COORDINATES REFER TO THE PRIMITIVE CELL

 *******************************************************************************

 LATTICE PARAMETERS  (ANGSTROMS AND DEGREES) - PRIMITIVE CELL
       A          B          C        ALPHA      BETA     GAMMA        VOLUME
    3.97088    3.97088    3.38540    90.00000  90.00000  90.00000     53.380604

 INPUT LIST - ATOM N.   4 NOT IRREDUCIBLE

 COORDINATES OF THE EQUIVALENT ATOMS (FRACTIONAL UNITS)

 N. ATOM EQUIV AT. N.          X                  Y                  Z

   1   1   1  238 SR    0.00000000000E+00  0.00000000000E+00 -5.00000000000E-01

   2   2   1  229 CU   -5.00000000000E-01 -5.00000000000E-01  0.00000000000E+00

   3   3   1  208 O     0.00000000000E+00 -5.00000000000E-01  0.00000000000E+00
   4   3   2  208 O     5.00000000000E-01  0.00000000000E+00  0.00000000000E+00

 NUMBER OF SYMMETRY OPERATORS         :   16
 *******************************************************************************
 * GEOMETRY EDITING - INPUT COORDINATES ARE GIVEN IN ANGSTROM         
 *******************************************************************************

 GEOMETRY NOW FULLY CONSISTENT WITH THE GROUP

 NO SYMMOPS WITH FINITE TRANSLATIONAL COMPONENT

 *******************************************************************************
 * SUPERCELL OPTION
 *******************************************************************************


        EXPANSION MATRIX OF PRIMITIVE CELL
 E1     2.000     0.000     0.000
 E2     0.000     2.000     0.000
 E3     0.000     0.000     1.000

 NUMBER OF ATOMS PER SUPERCELL    16

        DIRECT LATTICE VECTORS COMPONENTS (ANGSTROM)
 B1     7.942     0.000     0.000
 B2     0.000     7.942     0.000
 B3     0.000     0.000     3.385

 LATTICE PARAMETERS  (ANGSTROM AND DEGREES)
       A          B          C         ALPHA     BETA     GAMMA        VOLUME
    7.94176    7.94176    3.38540    90.00000  90.00000  90.00000    213.522417


 **** ATOMS BELONGING TO THE SUPERCELL
 LABEL AT.NO.      COORDINATES (ANGSTROM AND FRACTIONAL)
     1   238     0.0000     0.0000     1.6927     0.0000     0.0000     0.5000
     2   238     0.0000     3.9709     1.6927     0.0000     0.5000     0.5000
     3   238     3.9709     0.0000     1.6927     0.5000     0.0000     0.5000
     4   238     3.9709     3.9709     1.6927     0.5000     0.5000     0.5000
     5   229    -1.9854    -1.9854     0.0000    -0.2500    -0.2500     0.0000
     6   229    -1.9854     1.9854     0.0000    -0.2500     0.2500     0.0000
     7   229     1.9854    -1.9854     0.0000     0.2500    -0.2500     0.0000
     8   229     1.9854     1.9854     0.0000     0.2500     0.2500     0.0000
     9   208     0.0000    -1.9854     0.0000     0.0000    -0.2500     0.0000
    10   208     0.0000     1.9854     0.0000     0.0000     0.2500     0.0000
    11   208     3.9709    -1.9854     0.0000     0.5000    -0.2500     0.0000
    12   208     3.9709     1.9854     0.0000     0.5000     0.2500     0.0000
    13   208    -1.9854     0.0000     0.0000    -0.2500     0.0000     0.0000
    1 PROCESS            7  OF           32  WORKING
4   208    -1.9854     3.9709     0.0000    -0.2500     0.5000     0.0000
    15   208     1.9854     0.0000     0.0000     0.2500     0.0000     0.0000
    16   208     1.9854     3.9709     0.0000     0.2500     0.5000     0.0000

 **************************** SUPERCELL GENERATED ****************************
 *********************************************************************
                        ATOMIC SITE SYMMETRIES
 *********************************************************************


 ATOM   1 ATOMIC NUMBER 238 - NUMBER OF SYMMOPS WHICH DO NOT MOVE THE ATOM  16
 SEQUENCE NUMBERS OF THE SYMMOPS
    1    2    3    4    5    6    7    8    9   10   11   12   13   14   15
   16
 NO EQUIVALENT ATOMS


 ATOM   2 ATOMIC NUMBER 238 - NUMBER OF SYMMOPS WHICH DO NOT MOVE THE ATOM   8
 SEQUENCE NUMBERS OF THE SYMMOPS
    1    2    3    4    9   10   11   12
 NUMBER OF ATOMS EQUIVALENT BY SYMMETRY    1
 SEQUENCE NUMBERS OF THESE ATOMS
    3
 SEQUENCE NUMBERS OF THE CORRESPONDING SYMMOPS
    5


 ATOM   3 ATOMIC NUMBER 238 - NUMBER OF SYMMOPS WHICH DO NOT MOVE THE ATOM   8
 SEQUENCE NUMBERS OF THE SYMMOPS
    1    2    3    4    9   10   11   12
 NUMBER OF ATOMS EQUIVALENT BY SYMMETRY    1
 SEQUENCE NUMBERS OF THESE ATOMS
    2
 SEQUENCE NUMBERS OF THE CORRESPONDING SYMMOPS
    5


 ATOM   4 ATOMIC NUMBER 238 - NUMBER OF SYMMOPS WHICH DO NOT MOVE THE ATOM  16
 SEQUENCE NUMBERS OF THE SYMMOPS
    1    2    3    4    5    6    7    8    9   10   11   12   13   14   15
   16
 NO EQUIVALENT ATOMS


 ATOM   5 ATOMIC NUMBER 229 - NUMBER OF SYMMOPS WHICH DO NOT MOVE THE ATOM   4
 SEQUENCE NUMBERS OF THE SYMMOPS
    1    6   10   13
 NUMBER OF ATOMS EQUIVALENT BY SYMMETRY    3
 SEQUENCE NUMBERS OF THESE ATOMS
    8    6    7
 SEQUENCE NUMBERS OF THE CORRESPONDING SYMMOPS
    2    3    4


 ATOM   6 ATOMIC NUMBER 229 - NUMBER OF SYMMOPS WHICH DO NOT MOVE THE ATOM   4
 SEQUENCE NUMBERS OF THE SYMMOPS
    1    5   10   14
 NUMBER OF ATOMS EQUIVALENT BY SYMMETRY    3
 SEQUENCE NUMBERS OF THESE ATOMS
    7    5    8
 SEQUENCE NUMBERS OF THE CORRESPONDING SYMMOPS
    2    3    4


 ATOM   7 ATOMIC NUMBER 229 - NUMBER OF SYMMOPS WHICH DO NOT MOVE THE ATOM   4
 SEQUENCE NUMBERS OF THE SYMMOPS
    1    5   10   14
 NUMBER OF ATOMS EQUIVALENT BY SYMMETRY    3
 SEQUENCE NUMBERS OF THESE ATOMS
    6    8    5
 SEQUENCE NUMBERS OF THE CORRESPONDING SYMMOPS
    2    3    4


 ATOM   8 ATOMIC NUMBER 229 - NUMBER OF SYMMOPS WHICH DO NOT MOVE THE ATOM   4
 SEQUENCE NUMBERS OF THE SYMMOPS
    1    6   10   13
 NUMBER OF ATOMS EQUIVALENT BY SYMMETRY    3
 SEQUENCE NUMBERS OF THESE ATOMS
    5    7    6
 SEQUENCE NUMBERS OF THE CORRESPONDING SYMMOPS
    2    3    4


 ATOM   9 ATOMIC NUMBER 208 - NUMBER OF SYMMOPS WHICH DO NOT MOVE THE ATOM   4
 SEQUENCE NUMBERS OF THE SYMMOPS
    1    4   10   11
 NUMBER OF ATOMS EQUIVALENT BY SYMMETRY    3
 SEQUENCE NUMBERS OF THESE ATOMS
   10   15   13
 SEQUENCE NUMBERS OF THE CORRESPONDING SYMMOPS
    2    5    6


 ATOM  10 ATOMIC NUMBER 208 - NUMBER OF SYMMOPS WHICH DO NOT MOVE THE ATOM   4
 SEQUENCE NUMBERS OF THE SYMMOPS
    1    4   10   11
 NUMBER OF ATOMS EQUIVALENT BY SYMMETRY    3
 SEQUENCE NUMBERS OF THESE ATOMS
    9   13   15
 SEQUENCE NUMBERS OF THE CORRESPONDING SYMMOPS
    2    5    6


 ATOM  11 ATOMIC NUMBER 208 - NUMBER OF SYMMOPS WHICH DO NOT MOVE THE ATOM   4
 SEQUENCE NUMBERS OF THE SYMMOPS
    1    4   10   11
 NUMBER OF ATOMS EQUIVALENT BY SYMMETRY    3
 SEQUENCE NUMBERS OF THESE ATOMS
   12   16   14
 SEQUENCE NUMBERS OF THE CORRESPONDING SYMMOPS
    2    5    6


 ATOM  12 ATOMIC NUMBER 208 - NUMBER OF SYMMOPS WHICH DO NOT MOVE THE ATOM   4
 SEQUENCE NUMBERS OF THE SYMMOPS
    1    4   10   11
 NUMBER OF ATOMS EQUIVALENT BY SYMMETRY    3
 SEQUENCE NUMBERS OF THESE ATOMS
   11   14   16
 SEQUENCE NUMBERS OF THE CORRESPONDING SYMMOPS
    2    5    6


 ATOM  13 ATOMIC NUMBER 208 - NUMBER OF SYMMOPS WHICH DO NOT MOVE THE ATOM   4
 SEQUENCE NUMBERS OF THE SYMMOPS
    1    3   10   12
 NUMBER OF ATOMS EQUIVALENT BY SYMMETRY    3
 SEQUENCE NUMBERS OF THESE ATOMS
   15   10    9
 SEQUENCE NUMBERS OF THE CORRESPONDING SYMMOPS
    2    5    6


 ATOM  14 ATOMIC NUMBER 208 - NUMBER OF SYMMOPS WHICH DO NOT MOVE THE ATOM   4
 SEQUENCE NUMBERS OF THE SYMMOPS
    1    3   10   12
 NUMBER OF ATOMS EQUIVALENT BY SYMMETRY    3
 SEQUENCE NUMBERS OF THESE ATOMS
   16   12   11
 SEQUENCE NUMBERS OF THE CORRESPONDING SYMMOPS
    2    5    6


 ATOM  15 ATOMIC NUMBER 208 - NUMBER OF SYMMOPS WHICH DO NOT MOVE THE ATOM   4
 SEQUENCE NUMBERS OF THE SYMMOPS
    1    3   10   12
 NUMBER OF ATOMS EQUIVALENT BY SYMMETRY    3
 SEQUENCE NUMBERS OF THESE ATOMS
   13    9   10
 SEQUENCE NUMBERS OF THE CORRESPONDING SYMMOPS
    2    5    6


 ATOM  16 ATOMIC NUMBER 208 - NUMBER OF SYMMOPS WHICH DO NOT MOVE THE ATOM   4
 SEQUENCE NUMBERS OF THE SYMMOPS
    1    3   10   12
 NUMBER OF ATOMS EQUIVALENT BY SYMMETRY    3
 SEQUENCE NUMBERS OF THESE ATOMS
   14   11   12
 SEQUENCE NUMBERS OF THE CORRESPONDING SYMMOPS
    2    5    6

 *****   16 SYMMOPS - TRANSLATORS IN ANGSTROM
 ***** MATRICES AND TRANSLATORS IN THE CARTESIAN REFERENCE FRAME

 ORDER   : ORDER OF THE OPERATOR

 TRANSLA : REAL TRANSLATION (WITHOUT ORIGIN SHIFT) IN CARTESIAN COORDINATES

 uvw/hkl : ORIENTATION OF THE OPERATOR IN CARTESIAN COORDINATES

 LOCATED : ORIGIN OF THE OPERATOR IN CARTESIAN COORDINATES

   NO.   1 INVERSE   1    ORDER   1        NO.   2 INVERSE   2    ORDER   2
    1.000   0.000   0.000     0.000        -1.000   0.000   0.000     0.000
    0.000   1.000   0.000     0.000         0.000  -1.000   0.000     0.000
    0.000   0.000   1.000     0.000         0.000   0.000   1.000     0.000
             OPERATION E(   1)                       OPERATION C(   2)
 DETERMINANT 1.; ROTATION(DEG)   0.      DETERMINANT 1.; ROTATION(DEG) 180.
 TRANSLA (  0.000    0.000    0.000)     TRANSLA (  0.000    0.000    0.000)
 uvw/hkl (  0.000    0.000    0.000)     uvw/hkl (  0.000    0.000    4.000)
 LOCATED (  0.000    0.000    0.000)     LOCATED (  0.000    0.000    0.000)

   NO.   3 INVERSE   3    ORDER   2        NO.   4 INVERSE   4    ORDER   2
    1.000   0.000   0.000     0.000        -1.000   0.000   0.000     0.000
    0.000  -1.000   0.000     0.000         0.000   1.000   0.000     0.000
    0.000   0.000  -1.000     0.000         0.000   0.000  -1.000     0.000
             OPERATION C(   2)                       OPERATION C(   2)
 DETERMINANT 1.; ROTATION(DEG) 180.      DETERMINANT 1.; ROTATION(DEG) 180.
 TRANSLA (  0.000    0.000    0.000)     TRANSLA (  0.000    0.000    0.000)
 uvw/hkl (  4.000    0.000    0.000)     uvw/hkl (  0.000   -4.000    0.000)
 LOCATED (  0.000    0.000    0.000)     LOCATED (  0.000    0.000    0.000)

   NO.   5 INVERSE   5    ORDER   2        NO.   6 INVERSE   6    ORDER   2
    0.000  -1.000   0.000     0.000         0.000   1.000   0.000     0.000
   -1.000   0.000   0.000     0.000         1.000   0.000   0.000     0.000
    0.000   0.000  -1.000     0.000         0.000   0.000  -1.000     0.000
             OPERATION C(   2)                       OPERATION C(   2)
 DETERMINANT 1.; ROTATION(DEG) 180.      DETERMINANT 1.; ROTATION(DEG) 180.
 TRANSLA (  0.000    0.000    0.000)     TRANSLA (  0.000    0.000    0.000)
 uvw/hkl (  2.000   -2.000    0.000)     uvw/hkl ( -2.000   -2.000    0.000)
 LOCATED (  0.000    0.000    0.000)     LOCATED (  0.000    0.000    0.000)

   NO.   7 INVERSE   8    ORDER   4        NO.   8 INVERSE   7    ORDER   4
    0.000   1.000   0.000     0.000         0.000  -1.000   0.000     0.000
   -1.000   0.000   0.000     0.000         1.000   0.000   0.000     0.000
    0.000   0.000   1.000     0.000         0.000   0.000   1.000     0.000
             OPERATION C(   4)                       OPERATION C(   4)
 DETERMINANT 1.; ROTATION(DEG)  90.      DETERMINANT 1.; ROTATION(DEG)  90.
 TRANSLA (  0.000    0.000    0.000)     TRANSLA (  0.000    0.000    0.000)
 uvw/hkl (  0.000    0.000    2.000)     uvw/hkl (  0.000    0.000    2.000)
 LOCATED (  0.000    0.000    0.000)     LOCATED (  0.000    0.000    0.000)

   NO.   9 INVERSE   9    ORDER   2        NO.  10 INVERSE  10    ORDER   2
   -1.000   0.000   0.000     0.000         1.000   0.000   0.000     0.000
    0.000  -1.000   0.000     0.000         0.000   1.000   0.000     0.000
    0.000   0.000  -1.000     0.000         0.000   0.000  -1.000     0.000
             OPERATION I(   2)                       OPERATION M(   2)
 DETERMINANT-1.; ROTATION(DEG) 180.      DETERMINANT-1.; ROTATION(DEG)   0.
 TRANSLA (  0.000    0.000    0.000)     TRANSLA (  0.000    0.000    0.000)
 uvw/hkl (  0.000    0.000    0.000)     uvw/hkl (  0.000    0.000   -2.000)
 LOCATED (  0.000    0.000    0.000)     LOCATED (  0.000    0.000    0.000)

   NO.  11 INVERSE  11    ORDER   2        NO.  12 INVERSE  12    ORDER   2
   -1.000   0.000   0.000     0.000         1.000   0.000   0.000     0.000
    0.000   1.000   0.000     0.000         0.000  -1.000   0.000     0.000
    0.000   0.000   1.000     0.000         0.000   0.000   1.000     0.000
             OPERATION M(   2)                       OPERATION M(   2)
 DETERMINANT-1.; ROTATION(DEG)   0.      DETERMINANT-1.; ROTATION(DEG)   0.
 TRANSLA (  0.000    0.000    0.000)     TRANSLA (  0.000    0.000    0.000)
 uvw/hkl (  2.000    0.000    0.000)     uvw/hkl (  0.000   -2.000    0.000)
 LOCATED (  0.000    0.000    0.000)     LOCATED (  0.000    0.000    0.000)

   NO.  13 INVERSE  13    ORDER   2        NO.  14 INVERSE  14    ORDER   2
    0.000   1.000   0.000     0.000         0.000  -1.000   0.000     0.000
    1.000   0.000   0.000     0.000        -1.000   0.000   0.000     0.000
    0.000   0.000   1.000     0.000         0.000   0.000   1.000     0.000
             OPERATION M(   2)                       OPERATION M(   2)
 DETERMINANT-1.; ROTATION(DEG)   0.      DETERMINANT-1.; ROTATION(DEG)   0.
 TRANSLA (  0.000    0.000    0.000)     TRANSLA (  0.000    0.000    0.000)
 uvw/hkl (  1.000   -1.000    0.000)     uvw/hkl (  1.000    1.000    0.000)
 LOCATED (  0.000    0.000    0.000)     LOCATED (  0.000    0.000    0.000)

   NO.  15 INVERSE  16    ORDER   4        NO.  16 INVERSE  15    ORDER   4
    0.000  -1.000   0.000     0.000         0.000   1.000   0.000     0.000
    1.000   0.000   0.000     0.000        -1.000   0.000   0.000     0.000
    0.000   0.000  -1.000     0.000         0.000   0.000  -1.000     0.000
             OPERATION S(   4)                       OPERATION S(   4)
 DETERMINANT-1.; ROTATION(DEG)  90.      DETERMINANT-1.; ROTATION(DEG)  90.
 TRANSLA (  0.000    0.000    0.000)     TRANSLA (  0.000    0.000    0.000)
 uvw/hkl (  0.000    0.000    2.000)     uvw/hkl (  0.000    0.000    2.000)
 LOCATED (  0.000    0.000    0.000)     LOCATED (  0.000    0.000    0.000)
 SSSSSSSSSSSSSSSSSSSSSSSSSSSSSSSSSSSSSSSSSSSSSSSSSSSSSSSSSSSSSSSSSSSSSSSSSSSSSS
 REDUCTION OF SYMMETRY - ATOMIC LABELS SET TO (ATOM, AT. N., LABEL)
   1(238) 1;   2(238) 1;   3(238) 1;   4(238) 1;   5(229) 2;   6(229) 3;
   7(229) 4;   8(229) 5;   9(208) 6;  10(208) 6;  11(208) 6;  12(208) 6;
  13(208) 6;  14(208) 6;  15(208) 6;  16(208) 6;
 THE NUMBER OF SYMMETRY OPERATORS HAS BEEN REDUCED FROM 16 TO  2
 *******************************************************************************

 GCALCO - MAX INDICES DIRECT LATTICE VECTOR    11    11    25
 NO.OF VECTORS CREATED 6999 STARS  548 RMAX   134.22276 BOHR

 GEOMETRY FOR WAVE FUNCTION - DIMENSIONALITY OF THE SYSTEM    3
 (NON PERIODIC DIRECTION: LATTICE PARAMETER FORMALLY SET TO 500)
 *******************************************************************************
 LATTICE PARAMETERS (ANGSTROMS AND DEGREES) - BOHR = 0.5291772083 ANGSTROM
 PRIMITIVE CELL - CENTRING CODE 1/1 VOLUME=   213.522417 - DENSITY  5.687 g/cm^3
         A              B              C           ALPHA      BETA       GAMMA 
     7.94176411     7.94176411     3.38539626    90.000000  90.000000  90.000000
 *******************************************************************************
 ATOMS IN THE ASYMMETRIC UNIT   16 - ATOMS IN THE UNIT CELL:   16
     ATOM                 X/A                 Y/B                 Z/C    
 *******************************************************************************
      1 T 238 SR    0.000000000000E+00  0.000000000000E+00 -5.000000000000E-01
      2 T 238 SR    0.000000000000E+00 -5.000000000000E-01 -5.000000000000E-01
      3 T 238 SR   -5.000000000000E-01  0.000000000000E+00 -5.000000000000E-01
      4 T 238 SR   -5.000000000000E-01 -5.000000000000E-01 -5.000000000000E-01
      5 T 229 CU   -2.500000000000E-01 -2.500000000000E-01  0.000000000000E+00
      6 T 229 CU   -2.500000000000E-01  2.500000000000E-01  0.000000000000E+00
      7 T 229 CU    2.500000000000E-01 -2.500000000000E-01  0.000000000000E+00
      8 T 229 CU    2.500000000000E-01  2.500000000000E-01  0.000000000000E+00
      9 T 208 O     0.000000000000E+00 -2.500000000000E-01  0.000000000000E+00
     10 T 208 O     0.000000000000E+00  2.500000000000E-01  0.000000000000E+00
     11 T 208 O    -5.000000000000E-01 -2.500000000000E-01  0.000000000000E+00
     12 T 208 O    -5.000000000000E-01  2.500000000000E-01  0.000000000000E+00
     13 T 208 O    -2.500000000000E-01  0.000000000000E+00  0.000000000000E+00
     14 T 208 O    -2.500000000000E-01 -5.000000000000E-01  0.000000000000E+00
     15 T 208 O     2.500000000000E-01  0.000000000000E+00  0.000000000000E+00
     16 T 208 O     2.500000000000E-01 -5.000000000000E-01  0.000000000000E+00

 T = ATOM BELONGING TO THE ASYMMETRIC UNIT

 ****    2 SYMMOPS - TRANSLATORS IN FRACTIONAL UNITS
 **** MATRICES AND TRANSLATORS IN THE CRYSTALLOGRAPHIC REFERENCE FRAME
   V INV                    ROTATION MATRICES                   TRANSLATORS
   1   1  1.00  0.00  0.00  0.00  1.00  0.00  0.00  0.00  1.00  0.00  0.00  0.00
   2   2  1.00  0.00  0.00  0.00  1.00  0.00  0.00  0.00 -1.00  0.00  0.00  0.00

 DIRECT LATTICE VECTORS CARTESIAN COMPONENTS (ANGSTROM)
          X                    Y                    Z
   0.794176410504E+01   0.000000000000E+00   0.000000000000E+00
   0.000000000000E+00   0.794176410504E+01   0.000000000000E+00
   0.000000000000E+00   0.000000000000E+00   0.338539626231E+01


 CARTESIAN COORDINATES - PRIMITIVE CELL
 *******************************************************************************
 *      ATOM          X(ANGSTROM)         Y(ANGSTROM)         Z(ANGSTROM)
 *******************************************************************************
    1   238 SR    0.000000000000E+00  0.000000000000E+00  1.692698131155E+00
    2   238 SR    0.000000000000E+00  3.970882052520E+00  1.692698131155E+00
    3   238 SR    3.970882052520E+00  0.000000000000E+00  1.692698131155E+00
    4   238 SR    3.970882052520E+00  3.970882052520E+00  1.692698131155E+00
    5   229 CU   -1.985441026260E+00 -1.985441026260E+00  0.000000000000E+00
    6   229 CU   -1.985441026260E+00  1.985441026260E+00  0.000000000000E+00
    7   229 CU    1.985441026260E+00 -1.985441026260E+00  0.000000000000E+00
    8   229 CU    1.985441026260E+00  1.985441026260E+00  0.000000000000E+00
    9   208 O     0.000000000000E+00 -1.985441026260E+00  0.000000000000E+00
   10   208 O     0.000000000000E+00  1.985441026260E+00  0.000000000000E+00
   11   208 O     3.970882052520E+00 -1.985441026260E+00  0.000000000000E+00
   12   208 O     3.970882052520E+00  1.985441026260E+00  0.000000000000E+00
   13   208 O    -1.985441026260E+00  0.000000000000E+00  0.000000000000E+00
   14   208 O    -1.985441026260E+00  3.970882052520E+00  0.000000000000E+00
   15   208 O     1.985441026260E+00  0.000000000000E+00  0.000000000000E+00
   16   208 O     1.985441026260E+00  3.970882052520E+00  0.000000000000E+00

 *******************************************************************************
 *** PSEUDOPOTENTIAL INFORMATION ***
 *******************************************************************************

 ATOMIC NUMBER  29, NUCLEAR CHARGE 19.000, GIVEN IN INPUT       PSEUDOPOTENTIAL
   TYPE       EXPONENT      COEFF.    N      EXPONENT      COEFF.    N
  W0 TMS     6.2514963   19.0000000  -1     6.7272533  118.7784294   1
             6.6102459 -105.8998240   0
  P0 TMS    12.3656871  127.3506942   0
  P1 TMS    11.1607294   71.2298490   0

 ATOMIC NUMBER   8, NUCLEAR CHARGE  6.000, GIVEN IN INPUT       PSEUDOPOTENTIAL
   TYPE       EXPONENT      COEFF.    N      EXPONENT      COEFF.    N
  W0 TMS     9.2979390    6.0000000  -1     8.8649220   55.7876342   1
             8.6292567  -38.8197850   0
  P0 TMS     8.7192445   38.4191413   0

 ATOMIC NUMBER  38, NUCLEAR CHARGE  2.000, GIVEN IN INPUT       PSEUDOPOTENTIAL
   TYPE       EXPONENT      COEFF.    N      EXPONENT      COEFF.    N
  W0 TMS     4.3839388    2.0000000  -1     3.1964983    8.7678775   1
             0.9899150  -14.2552431   0
  P0 TMS     1.2868349  146.8716052   0
  P1 TMS     0.9567448  140.0262284   0
  P2 TMS     1.9483165   24.4454878   0
 INFORMATION **** CHARGED ****  CHARGED CELL - NO TOTAL ENERGY

 NUCLEAR CHARGE  1.320E+02 CHARGE ON SHELLS  1.330E+02
 WARNING **** INPBAS **** UNIT CELL NOT NEUTRAL

 *******************************************************************************
 LOCAL ATOMIC FUNCTIONS BASIS SET
 *******************************************************************************
   ATOM   X(AU)   Y(AU)   Z(AU)  N. TYPE  EXPONENT  S COEF   P COEF   D/F/G COEF
 *******************************************************************************
   1 SR   0.000   0.000   3.199
                                  1 S  
                                         2.177E-01-9.389E-02 0.000E+00 0.000E+00
                                         4.871E-01-2.476E-01 0.000E+00 0.000E+00
                                         1.090E+00 1.601E-01 0.000E+00 0.000E+00
                                         2.439E+00-4.360E-02 0.000E+00 0.000E+00
                                         5.457E+00 8.684E-03 0.000E+00 0.000E+00
                                         1.221E+01-1.296E-03 0.000E+00 0.000E+00
                           2-     4 P  
                                         2.236E-01 0.000E+00-4.747E-02 0.000E+00
                                         4.507E-01 0.000E+00-1.710E-01 0.000E+00
                                         9.086E-01 0.000E+00 1.048E-01 0.000E+00
                                         1.831E+00 0.000E+00-2.952E-02 0.000E+00
                                         3.692E+00 0.000E+00 6.196E-03 0.000E+00
                                         7.442E+00 0.000E+00-9.550E-04 0.000E+00
                           5-     9 D  
                                         5.283E-01 0.000E+00 0.000E+00 1.000E+00
                                 10 S  
                                         2.000E-01 1.000E+00 0.000E+00 0.000E+00
                                 11 S  
                                         6.000E-01 1.000E+00 0.000E+00 0.000E+00
                          12-    14 P  
                                         2.000E-01 0.000E+00 1.000E+00 0.000E+00
                          15-    17 P  
                                         6.000E-01 0.000E+00 1.000E+00 0.000E+00
   2 SR   0.000   7.504   3.199
   3 SR   7.504   0.000   3.199
   4 SR   7.504   7.504   3.199
   5 CU  -3.752  -3.752   0.000
                                 69 S  
                                         2.785E+01-1.934E-02 0.000E+00 0.000E+00
                                         2.142E+01 8.861E-02 0.000E+00 0.000E+00
                                         1.054E+01-3.559E-01 0.000E+00 0.000E+00
                                         2.536E+00 5.381E-01 0.000E+00 0.000E+00
                                         1.250E+00 5.111E-01 0.000E+00 0.000E+00
                                         5.998E-01 1.476E-01 0.000E+00 0.000E+00
                                 70 S  
                                         2.785E+01-2.653E-03 0.000E+00 0.000E+00
                                         2.142E+01-7.542E-03 0.000E+00 0.000E+00
                                         1.054E+01 7.976E-02 0.000E+00 0.000E+00
                                         2.536E+00-1.553E-01 0.000E+00 0.000E+00
                                         1.250E+00-2.531E-01 0.000E+00 0.000E+00
                                         5.998E-01-2.817E-02 0.000E+00 0.000E+00
                          71-    73 P  
                                         1.859E+01 0.000E+00 3.652E-03 0.000E+00
                                         1.430E+01 0.000E+00-3.708E-02 0.000E+00
                                         5.631E+00 0.000E+00 2.171E-01 0.000E+00
                                         2.683E+00 0.000E+00 4.410E-01 0.000E+00
                                         1.259E+00 0.000E+00 3.587E-01 0.000E+00
                                         5.741E-01 0.000E+00 1.148E-01 0.000E+00
                                         2.092E-01 0.000E+00 7.316E-03 0.000E+00
                          74-    78 D  
                                         1.579E+01 0.000E+00 0.000E+00 8.422E-02
                                         7.203E+00 0.000E+00 0.000E+00 2.554E-01
                                         2.974E+00 0.000E+00 0.000E+00 3.500E-01
                                         1.207E+00 0.000E+00 0.000E+00 3.417E-01
                                         4.640E-01 0.000E+00 0.000E+00 2.417E-01
                          79-    85 F  
                                         1.692E+00 0.000E+00 0.000E+00 1.000E+00
                                 86 S  
                                         2.000E-01 1.000E+00 0.000E+00 0.000E+00
                                 87 S  
                                         6.000E-01 1.000E+00 0.000E+00 0.000E+00
                          88-    90 P  
                                         2.000E-01 0.000E+00 1.000E+00 0.000E+00
                          91-    93 P  
                                         6.000E-01 0.000E+00 1.000E+00 0.000E+00
                          94-    98 D  
                                         2.000E-01 0.000E+00 0.000E+00 1.000E+00
                          99-   103 D  
                                         6.000E-01 0.000E+00 0.000E+00 1.000E+00
   6 CU  -3.752   3.752   0.000
   7 CU   3.752  -3.752   0.000
   8 CU   3.752   3.752   0.000
   9 O    0.000  -3.752   0.000
                                209 S  
                                         2.680E-01 3.048E-01 0.000E+00 0.000E+00
                                         5.731E-01 4.538E-01 0.000E+00 0.000E+00
                                         1.225E+00 2.959E-01 0.000E+00 0.000E+00
                                         2.620E+00 1.957E-02 0.000E+00 0.000E+00
                                         5.603E+00-1.286E-01 0.000E+00 0.000E+00
                                         1.198E+01 1.202E-02 0.000E+00 0.000E+00
                                         2.562E+01 4.070E-04 0.000E+00 0.000E+00
                                         5.478E+01-7.600E-05 0.000E+00 0.000E+00
                         210-   212 P  
                                         3.337E-01 0.000E+00 2.560E-01 0.000E+00
                                         6.666E-01 0.000E+00 2.819E-01 0.000E+00
                                         1.332E+00 0.000E+00 2.428E-01 0.000E+00
                                         2.661E+00 0.000E+00 1.611E-01 0.000E+00
                                         5.316E+00 0.000E+00 8.231E-02 0.000E+00
                                         1.062E+01 0.000E+00 3.990E-02 0.000E+00
                                         2.122E+01 0.000E+00 4.679E-03 0.000E+00
                         213-   217 D  
                                         6.693E-01 0.000E+00 0.000E+00 1.000E+00
                         218-   224 F  
                                         1.423E+00 0.000E+00 0.000E+00 1.000E+00
                                225 S  
                                         2.000E-01 1.000E+00 0.000E+00 0.000E+00
                                226 S  
                                         6.000E-01 1.000E+00 0.000E+00 0.000E+00
                         227-   229 P  
                                         2.000E-01 0.000E+00 1.000E+00 0.000E+00
                         230-   232 P  
                                         6.000E-01 0.000E+00 1.000E+00 0.000E+00
  10 O    0.000   3.752   0.000
  11 O    7.504  -3.752   0.000
  12 O    7.504   3.752   0.000
  13 O   -3.752   0.000   0.000
  14 O   -3.752   7.504   0.000
  15 O    3.752   0.000   0.000
  16 O    3.752   7.504   0.000
 INFORMATION **** SET_MPP **** PCRYSTAL CALCULATION
 INFORMATION **** READM2 **** NEW DEFAULT: FOCK/KS MATRIX MIXING SET TO 30 %
 INFORMATION **** READM2 **** NEW DEFAULT: FULL DIRECT SCF MODE
 INFORMATION **** READM2 **** NEW DEFAULT: COULOMB BIPOLAR BUFFER SET TO 32 Mb
 INFORMATION **** READM2 **** NEW DEFAULT: EXCHANGE BIPOLAR BUFFER SET TO 32 Mb

 *******************************************************************************
 NEW DEFAULT: DFT INTEGRATION GRID INCREASED TO XLGRID
 NEW DEFAULT: DIIS ACCELERATOR ACTIVE
 USE KEYWORD NODIIS TO TURN IT OFF
 *******************************************************************************

 INFORMATION **** READM2 **** FULL DIRECT SCF (MONO AND BIEL INT) SELECTED
 INFORMATION **** BIPOSIZE **** COULOMB BIPOLAR BUFFER SET TO   100000000
 INFORMATION **** EXCHSIZE **** EXCHANGE BIPOLAR BUFFER SIZE SET TO    10000000
 INFORMATION **** TOLDEE **** SCF TOL ON TOTAL ENERGY SET TO          10
 INFORMATION **** TOLINTEG **** COULOMB AND EXCHANGE SERIES TOLERANCES MODIFIED
 INFORMATION **** MAXCYCLE **** MAX NUMBER OF SCF CYCLES SET TO         200
 INFORMATION **** SMEAR **** FERMI SMEARING ACTIVE
 FERMI SMEARING - TEMPERATURE SMEARING OF FERMI SURFACE  0.1000E-12
 INFORMATION **** SAVEWF **** not fully tested
 INFORMATION **** SPINLOCK **** LOCK IN A GIVEN SPIN STATE
 ALPHA-BETA ELECTRONS LOCKED TO   1 FOR 200 SCF CYCLES
 SSSSSSSSSSSSSSSSSSSSSSSSSSSSSSSSSSSSSSSSSSSSSSSSSSSSSSSSSSSSSSSSSSSSSSSSSSSSSS
 ATOMIC SPINS SET TO (ATOM, AT. N., SPIN)
   1 238 0   2 238 0   3 238 0   4 238 0   5 229 1   6 229-1   7 229-1   8 229 1
   9 208 0  10 208 0  11 208 0  12 208 0  13 208 0  14 208 0  15 208 0  16 208 0
 *******************************************************************************
 N. OF ATOMS PER CELL        16  COULOMB OVERLAP TOL         (T1) 10**   -8
 NUMBER OF SHELLS           136  COULOMB PENETRATION TOL     (T2) 10**   -8
 NUMBER OF AO               400  EXCHANGE OVERLAP TOL        (T3) 10**   -8
 N. OF ELECTRONS PER CELL   133  EXCHANGE PSEUDO OVP (F(G))  (T4) 10**   -8
 CORE ELECTRONS PER CELL      0  EXCHANGE PSEUDO OVP (P(G))  (T5) 10**  -16
 N. OF SYMMETRY OPERATORS     2  POLE ORDER IN MONO ZONE                  4
 *******************************************************************************
 TYPE OF CALCULATION :  UNRESTRICTED OPEN SHELL
 KOHN-SHAM HAMILTONIAN

 (EXCHANGE)[CORRELATION] FUNCTIONAL:(PERDEW-BURKE-ERNZERHOF)[PERDEW-BURKE-ERNZERHOF]


 HYBRID EXCHANGE - PERCENTAGE OF FOCK EXCHANGE    25.0000

 SPIN POLARIZED DFT SELECTED
 CORE  PSEUDO POTENTIAL         TOL. ON PSEUDO              (TP) 10**- 6
 SPIN POLARIZATION - ALPHA-BETA =  1 FOR 200 CYCLES

 CAPPA:IS1  6;IS2  6;IS3  4; K PTS MONK NET  60; SYMMOPS:K SPACE   4;G SPACE   2

 *******************************************************************************
 MAX NUMBER OF SCF CYCLES     200  CONVERGENCE ON DELTAP        10**-20
 WEIGHT OF F(I) IN F(I+1)      90% CONVERGENCE ON ENERGY        10**-10
 SPIN POLARIZATION - ALPHA-BETA =  1 FOR 200 CYCLES
 SHRINK. FACT.(MONKH.)    6  6  4  NUMBER OF K POINTS IN THE IBZ     60
 SHRINKING FACTOR(GILAT NET)   12  NUMBER OF K POINTS(GILAT NET)    370
 *******************************************************************************
 *** K POINTS COORDINATES (OBLIQUE COORDINATES IN UNITS OF IS =  6)
   1-R(  0  0  0)   2-C(  1  0  0)   3-C(  2  0  0)   4-R(  3  0  0)
   5-C(  0  1  0)   6-C(  1  1  0)   7-C(  2  1  0)   8-C(  3  1  0)
   9-C(  4  1  0)  10-C(  5  1  0)  11-C(  0  2  0)  12-C(  1  2  0)
  13-C(  2  2  0)  14-C(  3  2  0)  15-C(  4  2  0)  16-C(  5  2  0)
  17-R(  0  3  0)  18-C(  1  3  0)  19-C(  2  3  0)  20-R(  3  3  0)
  21-C(  0  0  1)  22-C(  1  0  1)  23-C(  2  0  1)  24-C(  3  0  1)
  25-C(  0  1  1)  26-C(  1  1  1)  27-C(  2  1  1)  28-C(  3  1  1)
  29-C(  4  1  1)  30-C(  5  1  1)  31-C(  0  2  1)  32-C(  1  2  1)
  33-C(  2  2  1)  34-C(  3  2  1)  35-C(  4  2  1)  36-C(  5  2  1)
  37-C(  0  3  1)  38-C(  1  3  1)  39-C(  2  3  1)  40-C(  3  3  1)
  41-R(  0  0  2)  42-C(  1  0  2)  43-C(  2  0  2)  44-R(  3  0  2)
  45-C(  0  1  2)  46-C(  1  1  2)  47-C(  2  1  2)  48-C(  3  1  2)
  49-C(  4  1  2)  50-C(  5  1  2)  51-C(  0  2  2)  52-C(  1  2  2)
  53-C(  2  2  2)  54-C(  3  2  2)  55-C(  4  2  2)  56-C(  5  2  2)
  57-R(  0  3  2)  58-C(  1  3  2)  59-C(  2  3  2)  60-R(  3  3  2)

 DIRECT LATTICE VECTORS COMPON. (A.U.)     RECIP. LATTICE VECTORS COMPON. (A.U.) 
        X            Y            Z              X            Y            Z
   15.0077592    0.0000000    0.0000000      0.4186625    0.0000000    0.0000000
    0.0000000   15.0077592    0.0000000      0.0000000    0.4186625    0.0000000
    0.0000000    0.0000000    6.3974718      0.0000000    0.0000000    0.9821357

 DISK SPACE FOR EIGENVECTORS (FTN 10)    17920000 REALS

 SYMMETRY ADAPTION OF THE BLOCH FUNCTIONS ENABLED
 TTTTTTTTTTTTTTTTTTTTTTTTTTTTTT gordsh1     TELAPSE        2.02 TCPU        0.02
 PROCESS           19  OF           32  WORKING
 PROCESS           26  OF           32  WORKING
 PROCESS           23  OF           32  WORKING
 PROCESS           27  OF           32  WORKING
 PROCESS           22  OF           32  WORKING
 PROCESS           29  OF           32  WORKING
 PROCESS           25  OF           32  WORKING
 PROCESS           24  OF           32  WORKING
 PROCESS           31  OF           32  WORKING
 PROCESS           21  OF           32  WORKING
 PROCESS           16  OF           32  WORKING
 PROCESS           17  OF           32  WORKING
 PROCESS           30  OF           32  WORKING
 PROCESS           18  OF           32  WORKING
 PROCESS           20  OF           32  WORKING
 PROCESS           28  OF           32  WORKING

 MATRIX SIZE: P(G) 1250720, F(G)  228668, P(G) IRR  387156, F(G) IRR  150492
 MAX G-VECTOR INDEX FOR 1- AND 2-ELECTRON INTEGRALS 111

 TTTTTTTTTTTTTTTTTTTTTTTTTTTTTT INPUT       TELAPSE        2.72 TCPU        0.69

 NEIGHBORS OF THE NON-EQUIVALENT ATOMS

 N = NUMBER OF NEIGHBORS AT DISTANCE R
    ATOM  N     R/ANG      R/AU   NEIGHBORS (ATOM LABELS AND CELL INDICES)
   1 SR   8     2.6091     4.9304    9 O    0 0 0    9 O    0 0 1   10 O    0 0 0
                                    10 O    0 0 1   13 O    0 0 0   13 O    0 0 1
                                    15 O    0 0 0   15 O    0 0 1
   1 SR   8     3.2786     6.1956    5 CU   0 0 0    5 CU   0 0 1    6 CU   0 0 0
                                     6 CU   0 0 1    7 CU   0 0 0    7 CU   0 0 1
                                     8 CU   0 0 0    8 CU   0 0 1
   1 SR   2     3.3854     6.3975    1 SR   0 0-1    1 SR   0 0 1
   1 SR   4     3.9709     7.5039    2 SR   0 0 0    2 SR   0-1 0    3 SR   0 0 0
                                     3 SR  -1 0 0
   1 SR  16     4.7513     8.9787   11 O    0 0 0   11 O    0 0 1   11 O   -1 0 0
                                    11 O   -1 0 1   12 O    0 0 0   12 O    0 0 1
                                    12 O   -1 0 0   12 O   -1 0 1   14 O    0 0 0
                                    14 O    0 0 1   14 O    0-1 0   14 O    0-1 1
                                    16 O    0 0 0   16 O    0 0 1   16 O    0-1 0
                                    16 O    0-1 1
   1 SR   8     5.2181     9.8608    2 SR   0 0 1    2 SR   0 0-1    2 SR   0-1-1
                                     2 SR   0-1 1    3 SR   0 0 1    3 SR   0 0-1
                                     3 SR  -1 0-1    3 SR  -1 0 1

   2 SR   8     2.6091     4.9304    9 O    0 1 0    9 O    0 1 1   10 O    0 0 0
                                    10 O    0 0 1   14 O    0 0 0   14 O    0 0 1
                                    16 O    0 0 0   16 O    0 0 1
   2 SR   8     3.2786     6.1956    5 CU   0 1 0    5 CU   0 1 1    6 CU   0 0 0
                                     6 CU   0 0 1    7 CU   0 1 0    7 CU   0 1 1
                                     8 CU   0 0 0    8 CU   0 0 1
   2 SR   2     3.3854     6.3975    2 SR   0 0-1    2 SR   0 0 1
   2 SR   4     3.9709     7.5039    1 SR   0 0 0    1 SR   0 1 0    4 SR   0 0 0
                                     4 SR  -1 0 0
   2 SR  16     4.7513     8.9787   11 O    0 1 0   11 O    0 1 1   11 O   -1 1 0
                                    11 O   -1 1 1   12 O    0 0 0   12 O    0 0 1
                                    12 O   -1 0 0   12 O   -1 0 1   13 O    0 0 0
                                    13 O    0 0 1   13 O    0 1 0   13 O    0 1 1
                                    15 O    0 0 0   15 O    0 0 1   15 O    0 1 0
                                    15 O    0 1 1
   2 SR   8     5.2181     9.8608    1 SR   0 0-1    1 SR   0 0 1    1 SR   0 1 1
                                     1 SR   0 1-1    4 SR   0 0 1    4 SR   0 0-1
                                     4 SR  -1 0-1    4 SR  -1 0 1

   3 SR   8     2.6091     4.9304   11 O    0 0 0   11 O    0 0 1   12 O    0 0 0
                                    12 O    0 0 1   13 O    1 0 0   13 O    1 0 1
                                    15 O    0 0 0   15 O    0 0 1
   3 SR   8     3.2786     6.1956    5 CU   1 0 0    5 CU   1 0 1    6 CU   1 0 0
                                     6 CU   1 0 1    7 CU   0 0 0    7 CU   0 0 1
                                     8 CU   0 0 0    8 CU   0 0 1
   3 SR   2     3.3854     6.3975    3 SR   0 0-1    3 SR   0 0 1
   3 SR   4     3.9709     7.5039    1 SR   0 0 0    1 SR   1 0 0    4 SR   0 0 0
                                     4 SR   0-1 0
   3 SR  16     4.7513     8.9787    9 O    0 0 0    9 O    0 0 1    9 O    1 0 0
                                     9 O    1 0 1   10 O    0 0 0   10 O    0 0 1
                                    10 O    1 0 0   10 O    1 0 1   14 O    1 0 0
                                    14 O    1 0 1   14 O    1-1 0   14 O    1-1 1
                                    16 O    0 0 0   16 O    0 0 1   16 O    0-1 0
                                    16 O    0-1 1
   3 SR   8     5.2181     9.8608    1 SR   0 0-1    1 SR   0 0 1    1 SR   1 0 1
                                     1 SR   1 0-1    4 SR   0 0 1    4 SR   0 0-1
                                     4 SR   0-1-1    4 SR   0-1 1

   4 SR   8     2.6091     4.9304   11 O    0 1 0   11 O    0 1 1   12 O    0 0 0
                                    12 O    0 0 1   14 O    1 0 0   14 O    1 0 1
                                    16 O    0 0 0   16 O    0 0 1
   4 SR   8     3.2786     6.1956    5 CU   1 1 0    5 CU   1 1 1    6 CU   1 0 0
                                     6 CU   1 0 1    7 CU   0 1 0    7 CU   0 1 1
                                     8 CU   0 0 0    8 CU   0 0 1
   4 SR   2     3.3854     6.3975    4 SR   0 0-1    4 SR   0 0 1
   4 SR   4     3.9709     7.5039    2 SR   0 0 0    2 SR   1 0 0    3 SR   0 0 0
                                     3 SR   0 1 0
   4 SR  16     4.7513     8.9787    9 O    0 1 0    9 O    0 1 1    9 O    1 1 0
                                     9 O    1 1 1   10 O    0 0 0   10 O    0 0 1
                                    10 O    1 0 0   10 O    1 0 1   13 O    1 0 0
                                    13 O    1 0 1   13 O    1 1 0   13 O    1 1 1
                                    15 O    0 0 0   15 O    0 0 1   15 O    0 1 0
                                    15 O    0 1 1
   4 SR   8     5.2181     9.8608    2 SR   0 0-1    2 SR   0 0 1    2 SR   1 0 1
                                     2 SR   1 0-1    3 SR   0 0-1    3 SR   0 0 1
                                     3 SR   0 1 1    3 SR   0 1-1

   5 CU   4     1.9854     3.7519    9 O    0 0 0   11 O   -1 0 0   13 O    0 0 0
                                    14 O    0-1 0
   5 CU   8     3.2786     6.1956    1 SR   0 0 0    1 SR   0 0-1    2 SR   0-1 0
                                     2 SR   0-1-1    3 SR  -1 0 0    3 SR  -1 0-1
                                     4 SR  -1-1 0    4 SR  -1-1-1
   5 CU   2     3.3854     6.3975    5 CU   0 0-1    5 CU   0 0 1
   5 CU   8     3.9247     7.4165    9 O    0 0 1    9 O    0 0-1   11 O   -1 0-1
                                    11 O   -1 0 1   13 O    0 0 1   13 O    0 0-1
                                    14 O    0-1-1   14 O    0-1 1
   5 CU   4     3.9709     7.5039    6 CU   0 0 0    6 CU   0-1 0    7 CU   0 0 0
                                     7 CU  -1 0 0
   5 CU   8     4.4396     8.3896   10 O    0 0 0   10 O    0-1 0   12 O   -1 0 0
                                    12 O   -1-1 0   15 O    0 0 0   15 O   -1 0 0
                                    16 O    0-1 0   16 O   -1-1 0

   6 CU   4     1.9854     3.7519   10 O    0 0 0   12 O   -1 0 0   13 O    0 0 0
                                    14 O    0 0 0
   6 CU   8     3.2786     6.1956    1 SR   0 0 0    1 SR   0 0-1    2 SR   0 0 0
                                     2 SR   0 0-1    3 SR  -1 0 0    3 SR  -1 0-1
                                     4 SR  -1 0 0    4 SR  -1 0-1
   6 CU   2     3.3854     6.3975    6 CU   0 0-1    6 CU   0 0 1
   6 CU   8     3.9247     7.4165   10 O    0 0 1   10 O    0 0-1   12 O   -1 0-1
                                    12 O   -1 0 1   13 O    0 0-1   13 O    0 0 1
                                    14 O    0 0 1   14 O    0 0-1
   6 CU   4     3.9709     7.5039    5 CU   0 0 0    5 CU   0 1 0    8 CU   0 0 0
                                     8 CU  -1 0 0
   6 CU   8     4.4396     8.3896    9 O    0 0 0    9 O    0 1 0   11 O   -1 0 0
                                    11 O   -1 1 0   15 O    0 0 0   15 O   -1 0 0
                                    16 O    0 0 0   16 O   -1 0 0

   7 CU   4     1.9854     3.7519    9 O    0 0 0   11 O    0 0 0   15 O    0 0 0
                                    16 O    0-1 0
   7 CU   8     3.2786     6.1956    1 SR   0 0 0    1 SR   0 0-1    2 SR   0-1 0
                                     2 SR   0-1-1    3 SR   0 0 0    3 SR   0 0-1
                                     4 SR   0-1 0    4 SR   0-1-1
   7 CU   2     3.3854     6.3975    7 CU   0 0-1    7 CU   0 0 1
   7 CU   8     3.9247     7.4165    9 O    0 0-1    9 O    0 0 1   11 O    0 0 1
                                    11 O    0 0-1   15 O    0 0 1   15 O    0 0-1
                                    16 O    0-1-1   16 O    0-1 1
   7 CU   4     3.9709     7.5039    5 CU   0 0 0    5 CU   1 0 0    8 CU   0 0 0
                                     8 CU   0-1 0
   7 CU   8     4.4396     8.3896   10 O    0 0 0   10 O    0-1 0   12 O    0 0 0
                                    12 O    0-1 0   13 O    0 0 0   13 O    1 0 0
                                    14 O    0-1 0   14 O    1-1 0

   8 CU   4     1.9854     3.7519   10 O    0 0 0   12 O    0 0 0   15 O    0 0 0
                                    16 O    0 0 0
   8 CU   8     3.2786     6.1956    1 SR   0 0 0    1 SR   0 0-1    2 SR   0 0 0
                                     2 SR   0 0-1    3 SR   0 0 0    3 SR   0 0-1
                                     4 SR   0 0 0    4 SR   0 0-1
   8 CU   2     3.3854     6.3975    8 CU   0 0-1    8 CU   0 0 1
   8 CU   8     3.9247     7.4165   10 O    0 0-1   10 O    0 0 1   12 O    0 0 1
                                    12 O    0 0-1   15 O    0 0-1   15 O    0 0 1
                                    16 O    0 0 1   16 O    0 0-1
   8 CU   4     3.9709     7.5039    6 CU   0 0 0    6 CU   1 0 0    7 CU   0 0 0
                                     7 CU   0 1 0
   8 CU   8     4.4396     8.3896    9 O    0 0 0    9 O    0 1 0   11 O    0 0 0
                                    11 O    0 1 0   13 O    0 0 0   13 O    1 0 0
                                    14 O    0 0 0   14 O    1 0 0

   9 O    2     1.9854     3.7519    5 CU   0 0 0    7 CU   0 0 0
   9 O    4     2.6091     4.9304    1 SR   0 0 0    1 SR   0 0-1    2 SR   0-1 0
                                     2 SR   0-1-1
   9 O    4     2.8078     5.3060   13 O    0 0 0   14 O    0-1 0   15 O    0 0 0
                                    16 O    0-1 0
   9 O    2     3.3854     6.3975    9 O    0 0-1    9 O    0 0 1
   9 O    4     3.9247     7.4165    5 CU   0 0-1    5 CU   0 0 1    7 CU   0 0 1
                                     7 CU   0 0-1
   9 O    4     3.9709     7.5039   10 O    0 0 0   10 O    0-1 0   11 O    0 0 0
                                    11 O   -1 0 0

  10 O    2     1.9854     3.7519    6 CU   0 0 0    8 CU   0 0 0
  10 O    4     2.6091     4.9304    1 SR   0 0 0    1 SR   0 0-1    2 SR   0 0 0
                                     2 SR   0 0-1
  10 O    4     2.8078     5.3060   13 O    0 0 0   14 O    0 0 0   15 O    0 0 0
                                    16 O    0 0 0
  10 O    2     3.3854     6.3975   10 O    0 0-1   10 O    0 0 1
  10 O    4     3.9247     7.4165    6 CU   0 0-1    6 CU   0 0 1    8 CU   0 0 1
                                     8 CU   0 0-1
  10 O    4     3.9709     7.5039    9 O    0 0 0    9 O    0 1 0   12 O    0 0 0
                                    12 O   -1 0 0

  11 O    2     1.9854     3.7519    5 CU   1 0 0    7 CU   0 0 0
  11 O    4     2.6091     4.9304    3 SR   0 0 0    3 SR   0 0-1    4 SR   0-1 0
                                     4 SR   0-1-1
  11 O    4     2.8078     5.3060   13 O    1 0 0   14 O    1-1 0   15 O    0 0 0
                                    16 O    0-1 0
  11 O    2     3.3854     6.3975   11 O    0 0-1   11 O    0 0 1
  11 O    4     3.9247     7.4165    5 CU   1 0 1    5 CU   1 0-1    7 CU   0 0-1
                                     7 CU   0 0 1
  11 O    4     3.9709     7.5039    9 O    0 0 0    9 O    1 0 0   12 O    0 0 0
                                    12 O    0-1 0

  12 O    2     1.9854     3.7519    6 CU   1 0 0    8 CU   0 0 0
  12 O    4     2.6091     4.9304    3 SR   0 0 0    3 SR   0 0-1    4 SR   0 0 0
                                     4 SR   0 0-1
  12 O    4     2.8078     5.3060   13 O    1 0 0   14 O    1 0 0   15 O    0 0 0
                                    16 O    0 0 0
  12 O    2     3.3854     6.3975   12 O    0 0-1   12 O    0 0 1
  12 O    4     3.9247     7.4165    6 CU   1 0 1    6 CU   1 0-1    8 CU   0 0-1
                                     8 CU   0 0 1
  12 O    4     3.9709     7.5039   10 O    0 0 0   10 O    1 0 0   11 O    0 0 0
                                    11 O    0 1 0

  13 O    2     1.9854     3.7519    5 CU   0 0 0    6 CU   0 0 0
  13 O    4     2.6091     4.9304    1 SR   0 0 0    1 SR   0 0-1    3 SR  -1 0 0
                                     3 SR  -1 0-1
  13 O    4     2.8078     5.3060    9 O    0 0 0   10 O    0 0 0   11 O   -1 0 0
                                    12 O   -1 0 0
  13 O    2     3.3854     6.3975   13 O    0 0-1   13 O    0 0 1
  13 O    4     3.9247     7.4165    5 CU   0 0-1    5 CU   0 0 1    6 CU   0 0 1
                                     6 CU   0 0-1
  13 O    4     3.9709     7.5039   14 O    0 0 0   14 O    0-1 0   15 O    0 0 0
                                    15 O   -1 0 0

  14 O    2     1.9854     3.7519    5 CU   0 1 0    6 CU   0 0 0
  14 O    4     2.6091     4.9304    2 SR   0 0 0    2 SR   0 0-1    4 SR  -1 0 0
                                     4 SR  -1 0-1
  14 O    4     2.8078     5.3060    9 O    0 1 0   10 O    0 0 0   11 O   -1 1 0
                                    12 O   -1 0 0
  14 O    2     3.3854     6.3975   14 O    0 0-1   14 O    0 0 1
  14 O    4     3.9247     7.4165    5 CU   0 1 1    5 CU   0 1-1    6 CU   0 0-1
                                     6 CU   0 0 1
  14 O    4     3.9709     7.5039   13 O    0 0 0   13 O    0 1 0   16 O    0 0 0
                                    16 O   -1 0 0

  15 O    2     1.9854     3.7519    7 CU   0 0 0    8 CU   0 0 0
  15 O    4     2.6091     4.9304    1 SR   0 0 0    1 SR   0 0-1    3 SR   0 0 0
                                     3 SR   0 0-1
  15 O    4     2.8078     5.3060    9 O    0 0 0   10 O    0 0 0   11 O    0 0 0
                                    12 O    0 0 0
  15 O    2     3.3854     6.3975   15 O    0 0-1   15 O    0 0 1
  15 O    4     3.9247     7.4165    7 CU   0 0-1    7 CU   0 0 1    8 CU   0 0 1
                                     8 CU   0 0-1
  15 O    4     3.9709     7.5039   13 O    0 0 0   13 O    1 0 0   16 O    0 0 0
                                    16 O    0-1 0

  16 O    2     1.9854     3.7519    7 CU   0 1 0    8 CU   0 0 0
  16 O    4     2.6091     4.9304    2 SR   0 0 0    2 SR   0 0-1    4 SR   0 0 0
                                     4 SR   0 0-1
  16 O    4     2.8078     5.3060    9 O    0 1 0   10 O    0 0 0   11 O    0 1 0
                                    12 O    0 0 0
  16 O    2     3.3854     6.3975   16 O    0 0-1   16 O    0 0 1
  16 O    4     3.9247     7.4165    7 CU   0 1 1    7 CU   0 1-1    8 CU   0 0-1
                                     8 CU   0 0 1
  16 O    4     3.9709     7.5039   14 O    0 0 0   14 O    1 0 0   15 O    0 0 0
                                    15 O    0 1 0


 SYMMETRY ALLOWED INTERNAL DEGREE(S) OF FREEDOM:  30
 TTTTTTTTTTTTTTTTTTTTTTTTTTTTTT SYMM        TELAPSE        2.98 TCPU        0.94
 TTTTTTTTTTTTTTTTTTTTTTTTTTTTTT INT_SCREEN  TELAPSE        2.98 TCPU        0.94
 INFORMATION **** EXCBUF **** EXCH. BIPO BUFFER: WORDS USED =     4288050

 DFT PARAMETERS

     ATOM       ELECTRONS   NET CHARGE   R(ANGSTROM)
   1 238  SR      0.0000      2.0000     1.18000000
   5 229  CU     17.2500      1.7500     0.74000000
   9 208  O       8.0000     -2.0000     1.40000000
[golub091:79380] 31 more processes have sent help message help-mpi-btl-openib.txt / no device params found
[golub091:79380] Set MCA parameter "orte_base_help_aggregate" to 0 to see all help / error messages

 SIZE OF GRID=     181368
 TTTTTTTTTTTTTTTTTTTTTTTTTTTTTT MAKE_GRID2  TELAPSE        5.44 TCPU        3.40
 BECKE WEIGHT FUNCTION
 RADSAFE =     2.00
 TOLERANCES - DENSITY:10**- 6; POTENTIAL:10**- 9; GRID WGT:10**-14

 RADIAL INTEGRATION  - INTERVALS (POINTS,UPPER LIMIT):            1( 75,  4.0*R)

 ANGULAR INTEGRATION - INTERVALS (ACCURACY LEVEL [N. POINTS] UPPER LIMIT):
  1(  4[  86]   0.2)  2(  8[ 194]   0.5)  3( 12[ 350]   0.9)  4( 16[ 974]   3.5)
  5( 12[ 350]9999.0)
 TTTTTTTTTTTTTTTTTTTTTTTTTTTTTT INT_CALC    TELAPSE        5.52 TCPU        3.48
 EEEEEEEEEE INT_CALC TERMINATION  DATE 22 01 2018 TIME 13:02:50.2

 *******************************************************************************
 Generated by CrystalWriter                                                      
 CRYSTAL - SCF - TYPE OF CALCULATION :  UNRESTRICTED OPEN SHELL
 *******************************************************************************

 CAPPA:IS1  6;IS2  6;IS3  4; K PTS MONK NET  60; SYMMOPS:K SPACE   4;G SPACE   2

 TTTTTTTTTTTTTTTTTTTTTTTTTTTTTT SDIK        TELAPSE        5.75 TCPU        3.65

 AAAAAAAAAAAAAAAAAAAAAAAAAAAAAAAAAAAAAAAAAAAAAAAAAAAAAAAAAAAAAAAAAAAAAAAAAAAAAAA
         ATOMIC WAVEFUNCTION(S)


 NUCLEAR CHARGE 19.0  SYMMETRY SPECIES            S    P    D
 N. ELECTRONS   17.2  NUMBER OF PRIMITIVE GTOS   14    9    7
                      NUMBER OF CONTRACTED GTOS   4    3    3
                      NUMBER OF CLOSED SHELLS     1    1    0
                      OPEN SHELL OCCUPATION       0    0    9

  ZNUC SCFIT  TOTAL HF ENERGY   KINETIC ENERGY   VIRIAL THEOREM ACCURACY
  19.0  24   -1.953432393E+02  1.248337040E+02 -2.564827712E+00  3.3E-06

 NUCLEAR CHARGE  6.0  SYMMETRY SPECIES            S    P
 N. ELECTRONS    8.0  NUMBER OF PRIMITIVE GTOS   10    9
                      NUMBER OF CONTRACTED GTOS   3    3
                      NUMBER OF CLOSED SHELLS     1    1
                      OPEN SHELL OCCUPATION       0    0

  ZNUC SCFIT  TOTAL HF ENERGY   KINETIC ENERGY   VIRIAL THEOREM ACCURACY
   6.0  43   -1.519668598E+01  1.229882609E+01 -2.235620852E+00  4.1E-06

 AAAAAAAAAAAAAAAAAAAAAAAAAAAAAAAAAAAAAAAAAAAAAAAAAAAAAAAAAAAAAAAAAAAAAAAAAAAAAAA

 CHARGE NORMALIZATION FACTOR   1.00757576
 TOTAL ATOMIC CHARGES:
   0.0000000   0.0000000   0.0000000   0.0000000  17.1287879  17.1287879
  17.1287879  17.1287879   8.0606061   8.0606061   8.0606061   8.0606061
   8.0606061   8.0606061   8.0606061   8.0606061
 SUMMED SPIN DENSITY           0.00000000
 TOTAL ATOMIC SPINS  :
   0.0000000   0.0000000   0.0000000   0.0000000   1.0075758  -1.0075758
  -1.0075758   1.0075758   0.0000000   0.0000000   0.0000000   0.0000000
   0.0000000   0.0000000   0.0000000   0.0000000
 TTTTTTTTTTTTTTTTTTTTTTTTTTTTTT MOQGAD      TELAPSE        5.84 TCPU        3.73
 TTTTTTTTTTTTTTTTTTTTTTTTTTTTTT SHELLXN     TELAPSE      162.27 TCPU      159.17
 TTTTTTTTTTTTTTTTTTTTTTTTTTTTTT MONMO3      TELAPSE      165.68 TCPU      162.57
 NUMERICALLY INTEGRATED DENSITY     66.5000441259     66.5000441259
 TTTTTTTTTTTTTTTTTTTTTTTTTTTTTT NUMDFT      TELAPSE      166.55 TCPU      163.45
 CYC   0 ETOT(AU) -9.211562074858E+02 DETOT -9.21E+02 tst  0.00E+00 PX  1.00E+00
 CYCLE  0 WAVE FUNCTION SAVED IN FORTRAN UNIT 79
 TTTTTTTTTTTTTTTTTTTTTTTTTTTTTT DIIS        TELAPSE      166.92 TCPU      163.64
 TTTTTTTTTTTTTTTTTTTTTTTTTTTTTT FDIK        TELAPSE      170.33 TCPU      167.02
 SPIN LOCKING: NO ENERGY GAP COMPUTED
 TTTTTTTTTTTTTTTTTTTTTTTTTTTTTT PDIG        TELAPSE      170.55 TCPU      167.24
 CHARGE NORMALIZATION FACTOR   1.00000000
 TOTAL ATOMIC CHARGES:
   0.1705338   0.1705635   0.1705291   0.1705651  18.0692878  18.3741667
  18.2913924  18.0607733   7.4363891   7.4439744   7.4365721   7.4441574
   7.4483992   7.4459986   7.4345492   7.4321486
 SUMMED SPIN DENSITY           1.00000000
 TOTAL ATOMIC SPINS  :
   0.0007027   0.0007325   0.0006980   0.0007341   0.5336475  -0.1445228
  -0.2272967   0.5251330   0.0348871   0.0424731   0.0350699   0.0426559
   0.0468971   0.0444963   0.0330467   0.0306459
 TTTTTTTTTTTTTTTTTTTTTTTTTTTTTT MOQGAD      TELAPSE      170.64 TCPU      167.33
 TTTTTTTTTTTTTTTTTTTTTTTTTTTTTT SHELLXN     TELAPSE      337.56 TCPU      333.45
 TTTTTTTTTTTTTTTTTTTTTTTTTTTTTT MONMO3      TELAPSE      340.97 TCPU      336.85
 NUMERICALLY INTEGRATED DENSITY     66.9998814677     65.9998887141
 TTTTTTTTTTTTTTTTTTTTTTTTTTTTTT NUMDFT      TELAPSE      343.80 TCPU      339.68
 CYC   1 ETOT(AU) -9.208052675166E+02 DETOT  3.51E-01 tst  0.00E+00 PX  1.00E+00
 CYCLE  1 WAVE FUNCTION SAVED IN FORTRAN UNIT 79
 TTTTTTTTTTTTTTTTTTTTTTTTTTTTTT DIIS        TELAPSE      344.41 TCPU      340.22
 DIIS TEST: 0.11342E+01 AT SCF   CYCLE   1 - MIX   90 %
 TTTTTTTTTTTTTTTTTTTTTTTTTTTTTT FDIK        TELAPSE      345.36 TCPU      341.17
 SPIN LOCKING: NO ENERGY GAP COMPUTED
 TTTTTTTTTTTTTTTTTTTTTTTTTTTTTT PDIG        TELAPSE      345.56 TCPU      341.37
 CHARGE NORMALIZATION FACTOR   1.00000000
 TOTAL ATOMIC CHARGES:
   0.1710625   0.1710659   0.1710643   0.1710645  18.1484282  18.1799725
  18.4016199  18.1545873   7.4428048   7.4149794   7.4428097   7.4149966
   7.4149939   7.4148200   7.4429338   7.4427966
 SUMMED SPIN DENSITY           1.00000000
 TOTAL ATOMIC SPINS  :
   0.0008823   0.0008871   0.0008799   0.0008884   0.4892695  -0.2747728
  -0.0856166   0.4850569   0.0586845   0.0369229   0.0587246   0.0369626
   0.0371293   0.0366194   0.0589687   0.0585134
 TTTTTTTTTTTTTTTTTTTTTTTTTTTTTT MOQGAD      TELAPSE      345.58 TCPU      341.39
 TTTTTTTTTTTTTTTTTTTTTTTTTTTTTT SHELLXN     TELAPSE      512.93 TCPU      507.48
 TTTTTTTTTTTTTTTTTTTTTTTTTTTTTT MONMO3      TELAPSE      516.42 TCPU      510.88
 NUMERICALLY INTEGRATED DENSITY     66.9998837497     65.9998938566
 TTTTTTTTTTTTTTTTTTTTTTTTTTTTTT NUMDFT      TELAPSE      519.42 TCPU      513.88
 CYC   2 ETOT(AU) -9.208623565420E+02 DETOT -5.71E-02 tst  4.36E-04 PX  1.88E-01
 CYCLE  2 WAVE FUNCTION SAVED IN FORTRAN UNIT 79
 TTTTTTTTTTTTTTTTTTTTTTTTTTTTTT DIIS        TELAPSE      519.99 TCPU      514.25
 DIIS TEST: 0.50595E+00 AT SCF   CYCLE   2 - DIIS ACTIVE - HISTORY:     2 CYCLES
 TTTTTTTTTTTTTTTTTTTTTTTTTTTTTT FDIK        TELAPSE      520.97 TCPU      515.22
 SPIN LOCKING: NO ENERGY GAP COMPUTED
 TTTTTTTTTTTTTTTTTTTTTTTTTTTTTT PDIG        TELAPSE      521.17 TCPU      515.43
 CHARGE NORMALIZATION FACTOR   1.00000000
 TOTAL ATOMIC CHARGES:
   0.1823657   0.1823718   0.1823471   0.1823751  18.5252643  18.7342840
  16.9490556  18.4475225   7.3924508   7.5127840   7.3924697   7.5127956
   7.5237998   7.5236142   7.3783839   7.3781158
 SUMMED SPIN DENSITY           1.00000000
 TOTAL ATOMIC SPINS  :
  -0.0002643  -0.0003306  -0.0003354  -0.0002611   0.1879241   0.0304396
   0.0066446   0.2515088   0.0727558   0.0566277   0.0727816   0.0566674
   0.0466374   0.0467330   0.0862976   0.0861737
 TTTTTTTTTTTTTTTTTTTTTTTTTTTTTT MOQGAD      TELAPSE      521.19 TCPU      515.44
 TTTTTTTTTTTTTTTTTTTTTTTTTTTTTT SHELLXN     TELAPSE      688.36 TCPU      681.34
 TTTTTTTTTTTTTTTTTTTTTTTTTTTTTT MONMO3      TELAPSE      691.76 TCPU      684.74
 NUMERICALLY INTEGRATED DENSITY     66.9998781205     65.9998784187
 TTTTTTTTTTTTTTTTTTTTTTTTTTTTTT NUMDFT      TELAPSE      694.66 TCPU      687.65
 CYC   3 ETOT(AU) -9.194689304241E+02 DETOT  1.39E+00 tst  7.28E-01 PX  1.05E+00
 CYCLE  3 WAVE FUNCTION SAVED IN FORTRAN UNIT 79
 TTTTTTTTTTTTTTTTTTTTTTTTTTTTTT DIIS        TELAPSE      695.32 TCPU      688.15
 DIIS TEST: 0.15046E+02 AT SCF   CYCLE   3 - DIIS ACTIVE - HISTORY:     3 CYCLES
 TTTTTTTTTTTTTTTTTTTTTTTTTTTTTT FDIK        TELAPSE      696.44 TCPU      689.23
 SPIN LOCKING: NO ENERGY GAP COMPUTED
 TTTTTTTTTTTTTTTTTTTTTTTTTTTTTT PDIG        TELAPSE      696.64 TCPU      689.43
 CHARGE NORMALIZATION FACTOR   1.00000000
 TOTAL ATOMIC CHARGES:
   0.1805533   0.1805485   0.1805327   0.1805479  17.9861995  18.3676561
  18.3526473  17.9870863   7.4528406   7.4430876   7.4529027   7.4431121
   7.4423870   7.4418343   7.4543130   7.4537511
 SUMMED SPIN DENSITY           1.00000000
 TOTAL ATOMIC SPINS  :
  -0.0003923  -0.0003926  -0.0004065  -0.0003792   0.5081555  -0.1991762
  -0.0329433   0.5108085   0.0511671   0.0024471   0.0511773   0.0024538
   0.0015298   0.0017317   0.0520135   0.0522060
 TTTTTTTTTTTTTTTTTTTTTTTTTTTTTT MOQGAD      TELAPSE      696.66 TCPU      689.45
 TTTTTTTTTTTTTTTTTTTTTTTTTTTTTT SHELLXN     TELAPSE      864.13 TCPU      855.55
 TTTTTTTTTTTTTTTTTTTTTTTTTTTTTT MONMO3      TELAPSE      867.53 TCPU      858.96
 NUMERICALLY INTEGRATED DENSITY     66.9998828405     65.9998844319
 TTTTTTTTTTTTTTTTTTTTTTTTTTTTTT NUMDFT      TELAPSE      870.36 TCPU      861.79
 CYC   4 ETOT(AU) -9.208300158744E+02 DETOT -1.36E+00 tst  2.80E-01 PX  1.15E+00
 CYCLE  4 WAVE FUNCTION SAVED IN FORTRAN UNIT 79
 TTTTTTTTTTTTTTTTTTTTTTTTTTTTTT DIIS        TELAPSE      870.92 TCPU      862.19
 DIIS TEST: 0.98495E+00 AT SCF   CYCLE   4 - DIIS ACTIVE - HISTORY:     4 CYCLES
 TTTTTTTTTTTTTTTTTTTTTTTTTTTTTT FDIK        TELAPSE      871.85 TCPU      863.12
 SPIN LOCKING: NO ENERGY GAP COMPUTED
 TTTTTTTTTTTTTTTTTTTTTTTTTTTTTT PDIG        TELAPSE      872.06 TCPU      863.32
 CHARGE NORMALIZATION FACTOR   1.00000000
 TOTAL ATOMIC CHARGES:
   0.1826251   0.1826076   0.1826063   0.1826169  18.0936203  18.0712855
  18.1952622  18.0864850   7.4845533   7.4712679   7.4845652   7.4712729
   7.4708890   7.4706548   7.4850190   7.4846689
 SUMMED SPIN DENSITY           1.00000000
 TOTAL ATOMIC SPINS  :
  -0.0000161  -0.0000135  -0.0000114  -0.0000127   0.4927371  -0.3622988
   0.0175721   0.4997906   0.0719651   0.0161586   0.0719320   0.0161527
   0.0155129   0.0158988   0.0721676   0.0724649
 TTTTTTTTTTTTTTTTTTTTTTTTTTTTTT MOQGAD      TELAPSE      872.07 TCPU      863.34
 TTTTTTTTTTTTTTTTTTTTTTTTTTTTTT SHELLXN     TELAPSE     1039.13 TCPU     1029.45
 TTTTTTTTTTTTTTTTTTTTTTTTTTTTTT MONMO3      TELAPSE     1042.53 TCPU     1032.85
 NUMERICALLY INTEGRATED DENSITY     66.9998625566     65.9998683210
 TTTTTTTTTTTTTTTTTTTTTTTTTTTTTT NUMDFT      TELAPSE     1045.38 TCPU     1035.70
 CYC   5 ETOT(AU) -9.209215432211E+02 DETOT -9.15E-02 tst  5.01E-03 PX  2.58E-01
 CYCLE  5 WAVE FUNCTION SAVED IN FORTRAN UNIT 79
 TTTTTTTTTTTTTTTTTTTTTTTTTTTTTT DIIS        TELAPSE     1045.94 TCPU     1036.03
 DIIS TEST: 0.80487E-01 AT SCF   CYCLE   5 - DIIS ACTIVE - HISTORY:     5 CYCLES
 TTTTTTTTTTTTTTTTTTTTTTTTTTTTTT FDIK        TELAPSE     1046.98 TCPU     1037.07
 SPIN LOCKING: NO ENERGY GAP COMPUTED
 TTTTTTTTTTTTTTTTTTTTTTTTTTTTTT PDIG        TELAPSE     1047.19 TCPU     1037.28
 CHARGE NORMALIZATION FACTOR   1.00000000
 TOTAL ATOMIC CHARGES:
   0.1843997   0.1843674   0.1843954   0.1843739  18.1054432  18.1156644
  18.2562047  18.1248056   7.4721248   7.4434731   7.4720820   7.4434396
   7.4432488   7.4439707   7.4706763   7.4713305
 SUMMED SPIN DENSITY           1.00000000
 TOTAL ATOMIC SPINS  :
  -0.0001816  -0.0001774  -0.0001771  -0.0001805   0.5141851  -0.3888686
   0.0444455   0.5065464   0.0754548   0.0057688   0.0754606   0.0057674
   0.0038926   0.0042876   0.0768290   0.0769473
 TTTTTTTTTTTTTTTTTTTTTTTTTTTTTT MOQGAD      TELAPSE     1047.20 TCPU     1037.29
 TTTTTTTTTTTTTTTTTTTTTTTTTTTTTT SHELLXN     TELAPSE     1213.51 TCPU     1203.32
 TTTTTTTTTTTTTTTTTTTTTTTTTTTTTT MONMO3      TELAPSE     1216.91 TCPU     1206.73
 NUMERICALLY INTEGRATED DENSITY     66.9998647651     65.9998675563
 TTTTTTTTTTTTTTTTTTTTTTTTTTTTTT NUMDFT      TELAPSE     1220.03 TCPU     1209.85
 CYC   6 ETOT(AU) -9.209292551935E+02 DETOT -7.71E-03 tst  7.53E-04 PX  5.63E-02
 CYCLE  6 WAVE FUNCTION SAVED IN FORTRAN UNIT 79
 TTTTTTTTTTTTTTTTTTTTTTTTTTTTTT DIIS        TELAPSE     1220.58 TCPU     1210.31
 DIIS TEST: 0.19506E-01 AT SCF   CYCLE   6 - DIIS ACTIVE - HISTORY:     6 CYCLES
 TTTTTTTTTTTTTTTTTTTTTTTTTTTTTT FDIK        TELAPSE     1221.63 TCPU     1211.35
 SPIN LOCKING: NO ENERGY GAP COMPUTED
 TTTTTTTTTTTTTTTTTTTTTTTTTTTTTT PDIG        TELAPSE     1221.84 TCPU     1211.55
 CHARGE NORMALIZATION FACTOR   1.00000000
 TOTAL ATOMIC CHARGES:
   0.1822119   0.1822252   0.1822103   0.1822232  18.1224135  18.0928123
  18.2598478  18.0858347   7.4702239   7.4565473   7.4702326   7.4565534
   7.4553803   7.4551651   7.4731658   7.4729525
 SUMMED SPIN DENSITY           1.00000000
 TOTAL ATOMIC SPINS  :
  -0.0002368  -0.0002411  -0.0002390  -0.0002396   0.5132241  -0.4250280
   0.0592932   0.5343728   0.0799705  -0.0000298   0.0799625  -0.0000294
   0.0012703   0.0014279   0.0782041   0.0783183
 TTTTTTTTTTTTTTTTTTTTTTTTTTTTTT MOQGAD      TELAPSE     1221.85 TCPU     1211.57
 TTTTTTTTTTTTTTTTTTTTTTTTTTTTTT SHELLXN     TELAPSE     1388.94 TCPU     1377.45
 TTTTTTTTTTTTTTTTTTTTTTTTTTTTTT MONMO3      TELAPSE     1392.36 TCPU     1380.86
 NUMERICALLY INTEGRATED DENSITY     66.9998677991     65.9998694105
 TTTTTTTTTTTTTTTTTTTTTTTTTTTTTT NUMDFT      TELAPSE     1395.24 TCPU     1383.72
 CYC   7 ETOT(AU) -9.209297740077E+02 DETOT -5.19E-04 tst  2.81E-04 PX  4.75E-02
 CYCLE  7 WAVE FUNCTION SAVED IN FORTRAN UNIT 79
 TTTTTTTTTTTTTTTTTTTTTTTTTTTTTT DIIS        TELAPSE     1395.83 TCPU     1384.15
 DIIS TEST: 0.25784E-01 AT SCF   CYCLE   7 - DIIS ACTIVE - HISTORY:     7 CYCLES
 TTTTTTTTTTTTTTTTTTTTTTTTTTTTTT FDIK        TELAPSE     1396.79 TCPU     1385.10
 SPIN LOCKING: NO ENERGY GAP COMPUTED
 TTTTTTTTTTTTTTTTTTTTTTTTTTTTTT PDIG        TELAPSE     1396.99 TCPU     1385.30
 CHARGE NORMALIZATION FACTOR   1.00000000
 TOTAL ATOMIC CHARGES:
   0.1825020   0.1825156   0.1825028   0.1825102  18.0859027  18.0929029
  18.2556608  18.1183107   7.4757445   7.4542318   7.4757635   7.4542472
   7.4552878   7.4550758   7.4735295   7.4733123
 SUMMED SPIN DENSITY           1.00000000
 TOTAL ATOMIC SPINS  :
  -0.0002914  -0.0002911  -0.0002914  -0.0002929   0.5376053  -0.4408351
   0.0693346   0.5212391   0.0798516  -0.0012999   0.0798471  -0.0012961
  -0.0031451  -0.0031216   0.0814834   0.0815037
 TTTTTTTTTTTTTTTTTTTTTTTTTTTTTT MOQGAD      TELAPSE     1397.01 TCPU     1385.32
 TTTTTTTTTTTTTTTTTTTTTTTTTTTTTT SHELLXN     TELAPSE     1564.11 TCPU     1551.36
 TTTTTTTTTTTTTTTTTTTTTTTTTTTTTT MONMO3      TELAPSE     1567.71 TCPU     1554.87
 NUMERICALLY INTEGRATED DENSITY     66.9998682315     65.9998688208
 TTTTTTTTTTTTTTTTTTTTTTTTTTTTTT NUMDFT      TELAPSE     1570.64 TCPU     1557.79
 CYC   8 ETOT(AU) -9.209308179246E+02 DETOT -1.04E-03 tst  1.15E-04 PX  2.62E-02
 CYCLE  8 WAVE FUNCTION SAVED IN FORTRAN UNIT 79
 TTTTTTTTTTTTTTTTTTTTTTTTTTTTTT DIIS        TELAPSE     1571.17 TCPU     1558.09
 DIIS TEST: 0.18282E-01 AT SCF   CYCLE   8 - DIIS ACTIVE - HISTORY:     8 CYCLES
 TTTTTTTTTTTTTTTTTTTTTTTTTTTTTT FDIK        TELAPSE     1572.19 TCPU     1559.10
 SPIN LOCKING: NO ENERGY GAP COMPUTED
 TTTTTTTTTTTTTTTTTTTTTTTTTTTTTT PDIG        TELAPSE     1572.39 TCPU     1559.30
 CHARGE NORMALIZATION FACTOR   1.00000000
 TOTAL ATOMIC CHARGES:
   0.1831927   0.1831942   0.1831942   0.1831913  18.1048993  18.0960049
  18.2514752  18.1041178   7.4750020   7.4526799   7.4750051   7.4526855
   7.4524682   7.4524592   7.4752137   7.4752167
 SUMMED SPIN DENSITY           1.00000000
 TOTAL ATOMIC SPINS  :
  -0.0003360  -0.0003335  -0.0003374  -0.0003337   0.5311268  -0.4500665
   0.0772753   0.5319577   0.0820415  -0.0041998   0.0820473  -0.0041916
  -0.0042763  -0.0043526   0.0820322   0.0819466
 TTTTTTTTTTTTTTTTTTTTTTTTTTTTTT MOQGAD      TELAPSE     1572.41 TCPU     1559.32
 TTTTTTTTTTTTTTTTTTTTTTTTTTTTTT SHELLXN     TELAPSE     1738.76 TCPU     1725.28
 TTTTTTTTTTTTTTTTTTTTTTTTTTTTTT MONMO3      TELAPSE     1743.19 TCPU     1729.71
 NUMERICALLY INTEGRATED DENSITY     66.9998681711     65.9998679956
 TTTTTTTTTTTTTTTTTTTTTTTTTTTTTT NUMDFT      TELAPSE     1746.38 TCPU     1732.79
 CYC   9 ETOT(AU) -9.209318403550E+02 DETOT -1.02E-03 tst  3.94E-05 PX  1.56E-02
 CYCLE  9 WAVE FUNCTION SAVED IN FORTRAN UNIT 79
 TTTTTTTTTTTTTTTTTTTTTTTTTTTTTT DIIS        TELAPSE     1746.93 TCPU     1733.19
 DIIS TEST: 0.94975E-02 AT SCF   CYCLE   9 - DIIS ACTIVE - HISTORY:     9 CYCLES
 TTTTTTTTTTTTTTTTTTTTTTTTTTTTTT FDIK        TELAPSE     1748.12 TCPU     1734.30
 SPIN LOCKING: NO ENERGY GAP COMPUTED
 TTTTTTTTTTTTTTTTTTTTTTTTTTTTTT PDIG        TELAPSE     1748.38 TCPU     1734.56
 CHARGE NORMALIZATION FACTOR   1.00000000
 TOTAL ATOMIC CHARGES:
   0.1835109   0.1835110   0.1835115   0.1835105  18.1071230  18.1013177
  18.2395663  18.1112390   7.4721757   7.4546279   7.4721639   7.4546212
   7.4547478   7.4547350   7.4717745   7.4718640
 SUMMED SPIN DENSITY           1.00000000
 TOTAL ATOMIC SPINS  :
  -0.0003593  -0.0003552  -0.0003604  -0.0003555   0.5317654  -0.4584536
   0.0893247   0.5294208   0.0838581  -0.0065182   0.0838648  -0.0065080
  -0.0065922  -0.0067537   0.0840855   0.0839368
 TTTTTTTTTTTTTTTTTTTTTTTTTTTTTT MOQGAD      TELAPSE     1748.40 TCPU     1734.58
 TTTTTTTTTTTTTTTTTTTTTTTTTTTTTT SHELLXN     TELAPSE     1915.22 TCPU     1900.68
 TTTTTTTTTTTTTTTTTTTTTTTTTTTTTT MONMO3      TELAPSE     1918.62 TCPU     1904.08
 NUMERICALLY INTEGRATED DENSITY     66.9998684641     65.9998675884
 TTTTTTTTTTTTTTTTTTTTTTTTTTTTTT NUMDFT      TELAPSE     1921.52 TCPU     1906.98
 CYC  10 ETOT(AU) -9.209325764817E+02 DETOT -7.36E-04 tst  4.66E-05 PX  1.88E-02
 CYCLE 10 WAVE FUNCTION SAVED IN FORTRAN UNIT 79
 TTTTTTTTTTTTTTTTTTTTTTTTTTTTTT DIIS        TELAPSE     1922.12 TCPU     1907.39
 DIIS TEST: 0.42530E-02 AT SCF   CYCLE  10 - DIIS ACTIVE - HISTORY:    10 CYCLES
 TTTTTTTTTTTTTTTTTTTTTTTTTTTTTT FDIK        TELAPSE     1923.29 TCPU     1908.41
 SPIN LOCKING: NO ENERGY GAP COMPUTED
 TTTTTTTTTTTTTTTTTTTTTTTTTTTTTT PDIG        TELAPSE     1923.49 TCPU     1908.61
 CHARGE NORMALIZATION FACTOR   1.00000000
 TOTAL ATOMIC CHARGES:
   0.1831536   0.1831576   0.1831554   0.1831564  18.1063921  18.1067607
  18.2322811  18.1064750   7.4748640   7.4540128   7.4748635   7.4540159
   7.4540327   7.4539498   7.4748677   7.4748617
 SUMMED SPIN DENSITY           1.00000000
 TOTAL ATOMIC SPINS  :
  -0.0003958  -0.0003891  -0.0003963  -0.0003903   0.5289653  -0.4628958
   0.1016568   0.5284570   0.0850641  -0.0087603   0.0850724  -0.0087480
  -0.0085560  -0.0087615   0.0851104   0.0849669
 TTTTTTTTTTTTTTTTTTTTTTTTTTTTTT MOQGAD      TELAPSE     1923.51 TCPU     1908.63
 TTTTTTTTTTTTTTTTTTTTTTTTTTTTTT SHELLXN     TELAPSE     2089.56 TCPU     2074.58
 TTTTTTTTTTTTTTTTTTTTTTTTTTTTTT MONMO3      TELAPSE     2092.97 TCPU     2077.98
 NUMERICALLY INTEGRATED DENSITY     66.9998693484     65.9998677437
 TTTTTTTTTTTTTTTTTTTTTTTTTTTTTT NUMDFT      TELAPSE     2095.81 TCPU     2080.83
 CYC  11 ETOT(AU) -9.209329568860E+02 DETOT -3.80E-04 tst  2.92E-05 PX  1.84E-02
 CYCLE 11 WAVE FUNCTION SAVED IN FORTRAN UNIT 79
 TTTTTTTTTTTTTTTTTTTTTTTTTTTTTT DIIS        TELAPSE     2096.39 TCPU     2081.24
 DIIS TEST: 0.15073E-02 AT SCF   CYCLE  11 - DIIS ACTIVE - HISTORY:    11 CYCLES
 TTTTTTTTTTTTTTTTTTTTTTTTTTTTTT FDIK        TELAPSE     2097.43 TCPU     2082.25
 SPIN LOCKING: NO ENERGY GAP COMPUTED
 TTTTTTTTTTTTTTTTTTTTTTTTTTTTTT PDIG        TELAPSE     2097.63 TCPU     2082.46
 CHARGE NORMALIZATION FACTOR   1.00000000
 TOTAL ATOMIC CHARGES:
   0.1834261   0.1834267   0.1834266   0.1834263  18.1062424  18.1104615
  18.2283414  18.1067747   7.4738330   7.4547969   7.4738384   7.4548044
   7.4547470   7.4547506   7.4738364   7.4738675
 SUMMED SPIN DENSITY           1.00000000
 TOTAL ATOMIC SPINS  :
  -0.0004117  -0.0004077  -0.0004134  -0.0004068   0.5241051  -0.4641761
   0.1134091   0.5233070   0.0863726  -0.0101640   0.0863775  -0.0101540
  -0.0100099  -0.0101659   0.0864285   0.0863097
 TTTTTTTTTTTTTTTTTTTTTTTTTTTTTT MOQGAD      TELAPSE     2097.64 TCPU     2082.47
 TTTTTTTTTTTTTTTTTTTTTTTTTTTTTT SHELLXN     TELAPSE     2263.85 TCPU     2248.53
 TTTTTTTTTTTTTTTTTTTTTTTTTTTTTT MONMO3      TELAPSE     2267.85 TCPU     2252.53
 NUMERICALLY INTEGRATED DENSITY     66.9998694322     65.9998674268
 TTTTTTTTTTTTTTTTTTTTTTTTTTTTTT NUMDFT      TELAPSE     2271.00 TCPU     2255.68
 CYC  12 ETOT(AU) -9.209331461656E+02 DETOT -1.89E-04 tst  3.36E-05 PX  1.71E-02
 CYCLE 12 WAVE FUNCTION SAVED IN FORTRAN UNIT 79
 TTTTTTTTTTTTTTTTTTTTTTTTTTTTTT DIIS        TELAPSE     2271.60 TCPU     2256.06
 DIIS TEST: 0.66487E-03 AT SCF   CYCLE  12 - DIIS ACTIVE - HISTORY:    12 CYCLES
 TTTTTTTTTTTTTTTTTTTTTTTTTTTTTT FDIK        TELAPSE     2272.56 TCPU     2257.02
 SPIN LOCKING: NO ENERGY GAP COMPUTED
 TTTTTTTTTTTTTTTTTTTTTTTTTTTTTT PDIG        TELAPSE     2272.77 TCPU     2257.22
 CHARGE NORMALIZATION FACTOR   1.00000000
 TOTAL ATOMIC CHARGES:
   0.1833565   0.1833570   0.1833577   0.1833568  18.1076173  18.1101958
  18.2244542  18.1079493   7.4740773   7.4550276   7.4740687   7.4550190
   7.4551265   7.4551050   7.4739351   7.4739960
 SUMMED SPIN DENSITY           1.00000000
 TOTAL ATOMIC SPINS  :
  -0.0004387  -0.0004354  -0.0004397  -0.0004353   0.5196244  -0.4669214
   0.1248836   0.5190141   0.0876336  -0.0113965   0.0876391  -0.0113902
  -0.0112526  -0.0113719   0.0876913   0.0875955
 TTTTTTTTTTTTTTTTTTTTTTTTTTTTTT MOQGAD      TELAPSE     2272.78 TCPU     2257.24
 TTTTTTTTTTTTTTTTTTTTTTTTTTTTTT SHELLXN     TELAPSE     2439.83 TCPU     2423.30
 TTTTTTTTTTTTTTTTTTTTTTTTTTTTTT MONMO3      TELAPSE     2443.24 TCPU     2426.71
 NUMERICALLY INTEGRATED DENSITY     66.9998698822     65.9998673452
 TTTTTTTTTTTTTTTTTTTTTTTTTTTTTT NUMDFT      TELAPSE     2446.09 TCPU     2429.55
 CYC  13 ETOT(AU) -9.209332579444E+02 DETOT -1.12E-04 tst  2.71E-05 PX  1.66E-02
 CYCLE 13 WAVE FUNCTION SAVED IN FORTRAN UNIT 79
 TTTTTTTTTTTTTTTTTTTTTTTTTTTTTT DIIS        TELAPSE     2446.63 TCPU     2430.06
 DIIS TEST: 0.37058E-03 AT SCF   CYCLE  13 - DIIS ACTIVE - HISTORY:    13 CYCLES
 TTTTTTTTTTTTTTTTTTTTTTTTTTTTTT FDIK        TELAPSE     2447.73 TCPU     2430.96
 SPIN LOCKING: NO ENERGY GAP COMPUTED
 TTTTTTTTTTTTTTTTTTTTTTTTTTTTTT PDIG        TELAPSE     2448.11 TCPU     2431.33
 CHARGE NORMALIZATION FACTOR   1.00000000
 TOTAL ATOMIC CHARGES:
   0.1833578   0.1833593   0.1833590   0.1833587  18.1082808  18.1118218
  18.2215906  18.1084268   7.4738324   7.4552901   7.4738375   7.4552930
   7.4551562   7.4551562   7.4739380   7.4739418
 SUMMED SPIN DENSITY           1.00000000
 TOTAL ATOMIC SPINS  :
  -0.0004687  -0.0004655  -0.0004690  -0.0004660   0.5148860  -0.4691229
   0.1360033   0.5144245   0.0889108  -0.0125189   0.0889116  -0.0125129
  -0.0124133  -0.0124966   0.0889297   0.0888681
 TTTTTTTTTTTTTTTTTTTTTTTTTTTTTT MOQGAD      TELAPSE     2448.14 TCPU     2431.36
 TTTTTTTTTTTTTTTTTTTTTTTTTTTTTT SHELLXN     TELAPSE     2614.67 TCPU     2597.43
 TTTTTTTTTTTTTTTTTTTTTTTTTTTTTT MONMO3      TELAPSE     2618.16 TCPU     2600.84
 NUMERICALLY INTEGRATED DENSITY     66.9998702960     65.9998672366
 TTTTTTTTTTTTTTTTTTTTTTTTTTTTTT NUMDFT      TELAPSE     2621.01 TCPU     2603.69
 CYC  14 ETOT(AU) -9.209333324507E+02 DETOT -7.45E-05 tst  2.84E-05 PX  1.61E-02
 CYCLE 14 WAVE FUNCTION SAVED IN FORTRAN UNIT 79
 TTTTTTTTTTTTTTTTTTTTTTTTTTTTTT DIIS        TELAPSE     2621.58 TCPU     2604.08
 DIIS TEST: 0.24305E-03 AT SCF   CYCLE  14 - DIIS ACTIVE - HISTORY:    14 CYCLES
 TTTTTTTTTTTTTTTTTTTTTTTTTTTTTT FDIK        TELAPSE     2622.52 TCPU     2605.00
 SPIN LOCKING: NO ENERGY GAP COMPUTED
 TTTTTTTTTTTTTTTTTTTTTTTTTTTTTT PDIG        TELAPSE     2622.72 TCPU     2605.21
 CHARGE NORMALIZATION FACTOR   1.00000000
 TOTAL ATOMIC CHARGES:
   0.1833541   0.1833541   0.1833554   0.1833537  18.1086692  18.1113597
  18.2203352  18.1084517   7.4741765   7.4552622   7.4741724   7.4552567
   7.4556030   7.4556171   7.4738067   7.4738724
 SUMMED SPIN DENSITY           1.00000000
 TOTAL ATOMIC SPINS  :
  -0.0005115  -0.0005096  -0.0005119  -0.0005099   0.5090648  -0.4716785
   0.1485561   0.5090414   0.0903338  -0.0136147   0.0903351  -0.0136115
  -0.0135476  -0.0135859   0.0903974   0.0903525
 TTTTTTTTTTTTTTTTTTTTTTTTTTTTTT MOQGAD      TELAPSE     2622.74 TCPU     2605.22
 TTTTTTTTTTTTTTTTTTTTTTTTTTTTTT SHELLXN     TELAPSE     2789.64 TCPU     2771.22
 TTTTTTTTTTTTTTTTTTTTTTTTTTTTTT MONMO3      TELAPSE     2793.04 TCPU     2774.62
 NUMERICALLY INTEGRATED DENSITY     66.9998708597     65.9998671214
 TTTTTTTTTTTTTTTTTTTTTTTTTTTTTT NUMDFT      TELAPSE     2796.12 TCPU     2777.61
 CYC  15 ETOT(AU) -9.209333959501E+02 DETOT -6.35E-05 tst  3.79E-05 PX  1.83E-02
 CYCLE 15 WAVE FUNCTION SAVED IN FORTRAN UNIT 79
 TTTTTTTTTTTTTTTTTTTTTTTTTTTTTT DIIS        TELAPSE     2796.75 TCPU     2778.11
 DIIS TEST: 0.92234E-04 AT SCF   CYCLE  15 - DIIS ACTIVE - HISTORY:    15 CYCLES
 TTTTTTTTTTTTTTTTTTTTTTTTTTTTTT FDIK        TELAPSE     2797.90 TCPU     2779.07
 SPIN LOCKING: NO ENERGY GAP COMPUTED
 TTTTTTTTTTTTTTTTTTTTTTTTTTTTTT PDIG        TELAPSE     2798.19 TCPU     2779.31
 CHARGE NORMALIZATION FACTOR   1.00000000
 TOTAL ATOMIC CHARGES:
[...]
  -0.0145827  -0.0145986   0.0915764   0.0915636
 TTTTTTTTTTTTTTTTTTTTTTTTTTTTTT MOQGAD      TELAPSE     2798.21 TCPU     2779.33
 TTTTTTTTTTTTTTTTTTTTTTTTTTTTTT SHELLXN     TELAPSE     2964.99 TCPU     2945.40
 TTTTTTTTTTTTTTTTTTTTTTTTTTTTTT MONMO3      TELAPSE     2968.39 TCPU     2948.80
 NUMERICALLY INTEGRATED DENSITY     66.9998713612     65.9998670268
 TTTTTTTTTTTTTTTTTTTTTTTTTTTTTT NUMDFT      TELAPSE     2971.25 TCPU     2951.66
 CYC  16 ETOT(AU) -9.209334258255E+02 DETOT -2.99E-05 tst  3.09E-05 PX  1.56E-02
 CYCLE 16 WAVE FUNCTION SAVED IN FORTRAN UNIT 79
 TTTTTTTTTTTTTTTTTTTTTTTTTTTTTT DIIS        TELAPSE     2971.78 TCPU     2952.11
 DIIS TEST: 0.34001E-04 AT SCF   CYCLE  16 - DIIS ACTIVE - HISTORY:    16 CYCLES
 TTTTTTTTTTTTTTTTTTTTTTTTTTTTTT FDIK        TELAPSE     2972.86 TCPU     2953.12
 SPIN LOCKING: NO ENERGY GAP COMPUTED
 TTTTTTTTTTTTTTTTTTTTTTTTTTTTTT PDIG        TELAPSE     2973.06 TCPU     2953.32
 CHARGE NORMALIZATION FACTOR   1.00000000
 TOTAL ATOMIC CHARGES:
   0.1833136   0.1833149   0.1833137   0.1833145  18.1096793  18.1126134
  18.2161023  18.1095715   7.4739789   7.4557197   7.4739841   7.4557241
   7.4557586   7.4557567   7.4739447   7.4739099
 SUMMED SPIN DENSITY           1.00000000
 TOTAL ATOMIC SPINS  :
  -0.0005751  -0.0005746  -0.0005756  -0.0005745   0.5019792  -0.4755161
   0.1651161   0.5020364   0.0922972  -0.0151321   0.0922963  -0.0151304
  -0.0151268  -0.0151293   0.0923037   0.0923056
 TTTTTTTTTTTTTTTTTTTTTTTTTTTTTT MOQGAD      TELAPSE     2973.08 TCPU     2953.34
 TTTTTTTTTTTTTTTTTTTTTTTTTTTTTT SHELLXN     TELAPSE     3139.92 TCPU     3119.36
 TTTTTTTTTTTTTTTTTTTTTTTTTTTTTT MONMO3      TELAPSE     3143.32 TCPU     3122.76
 NUMERICALLY INTEGRATED DENSITY     66.9998716796     65.9998669848
 TTTTTTTTTTTTTTTTTTTTTTTTTTTTTT NUMDFT      TELAPSE     3146.16 TCPU     3125.60
 CYC  17 ETOT(AU) -9.209334334898E+02 DETOT -7.66E-06 tst  1.01E-05 PX  8.67E-03
 CYCLE 17 WAVE FUNCTION SAVED IN FORTRAN UNIT 79
 TTTTTTTTTTTTTTTTTTTTTTTTTTTTTT DIIS        TELAPSE     3146.70 TCPU     3125.91
 DIIS TEST: 0.15345E-04 AT SCF   CYCLE  17 - DIIS ACTIVE - HISTORY:    17 CYCLES
 TTTTTTTTTTTTTTTTTTTTTTTTTTTTTT FDIK        TELAPSE     3147.77 TCPU     3126.98
 SPIN LOCKING: NO ENERGY GAP COMPUTED
 TTTTTTTTTTTTTTTTTTTTTTTTTTTTTT PDIG        TELAPSE     3147.97 TCPU     3127.18
 CHARGE NORMALIZATION FACTOR   1.00000000
 TOTAL ATOMIC CHARGES:
   0.1833112   0.1833096   0.1833116   0.1833098  18.1091409  18.1120088
  18.2176788  18.1091138   7.4740002   7.4556906   7.4739937   7.4556856
   7.4557046   7.4557132   7.4739759   7.4740517
 SUMMED SPIN DENSITY           1.00000000
 TOTAL ATOMIC SPINS  :
  -0.0005819  -0.0005819  -0.0005820  -0.0005819   0.5021332  -0.4757666
   0.1646866   0.5021651   0.0923162  -0.0150371   0.0923180  -0.0150366
  -0.0150401  -0.0150420   0.0923257   0.0923051
 TTTTTTTTTTTTTTTTTTTTTTTTTTTTTT MOQGAD      TELAPSE     3147.98 TCPU     3127.20
 TTTTTTTTTTTTTTTTTTTTTTTTTTTTTT SHELLXN     TELAPSE     3315.65 TCPU     3293.30
 TTTTTTTTTTTTTTTTTTTTTTTTTTTTTT MONMO3      TELAPSE     3319.05 TCPU     3296.70
 NUMERICALLY INTEGRATED DENSITY     66.9998717477     65.9998669935
 TTTTTTTTTTTTTTTTTTTTTTTTTTTTTT NUMDFT      TELAPSE     3322.10 TCPU     3299.75
 CYC  18 ETOT(AU) -9.209334346403E+02 DETOT -1.15E-06 tst  6.38E-08 PX  7.53E-04
 CYCLE 18 WAVE FUNCTION SAVED IN FORTRAN UNIT 79
 TTTTTTTTTTTTTTTTTTTTTTTTTTTTTT DIIS        TELAPSE     3322.68 TCPU     3300.14
 DIIS TEST: 0.23532E-05 AT SCF   CYCLE  18 - DIIS ACTIVE - HISTORY:    18 CYCLES
 TTTTTTTTTTTTTTTTTTTTTTTTTTTTTT FDIK        TELAPSE     3323.74 TCPU     3301.15
 SPIN LOCKING: NO ENERGY GAP COMPUTED
 TTTTTTTTTTTTTTTTTTTTTTTTTTTTTT PDIG        TELAPSE     3323.94 TCPU     3301.35
 CHARGE NORMALIZATION FACTOR   1.00000000
 TOTAL ATOMIC CHARGES:
   0.1833085   0.1833110   0.1833080   0.1833106  18.1093728  18.1123198
  18.2168456  18.1093762   7.4740117   7.4557220   7.4740225   7.4557302
   7.4557082   7.4556887   7.4740505   7.4739136
 SUMMED SPIN DENSITY           1.00000000
 TOTAL ATOMIC SPINS  :
  -0.0005848  -0.0005846  -0.0005848  -0.0005846   0.5018575  -0.4759639
   0.1654754   0.5018694   0.0923997  -0.0151246   0.0923975  -0.0151239
  -0.0151252  -0.0151288   0.0923898   0.0924159
 TTTTTTTTTTTTTTTTTTTTTTTTTTTTTT MOQGAD      TELAPSE     3323.96 TCPU     3301.37
 TTTTTTTTTTTTTTTTTTTTTTTTTTTTTT SHELLXN     TELAPSE     3490.75 TCPU     3467.35
 TTTTTTTTTTTTTTTTTTTTTTTTTTTTTT MONMO3      TELAPSE     3494.15 TCPU     3470.75
 NUMERICALLY INTEGRATED DENSITY     66.9998717697     65.9998669729
 TTTTTTTTTTTTTTTTTTTTTTTTTTTTTT NUMDFT      TELAPSE     3496.99 TCPU     3473.59
 CYC  19 ETOT(AU) -9.209334350897E+02 DETOT -4.49E-07 tst  1.79E-07 PX  1.09E-03
 CYCLE 19 WAVE FUNCTION SAVED IN FORTRAN UNIT 79
 TTTTTTTTTTTTTTTTTTTTTTTTTTTTTT DIIS        TELAPSE     3497.51 TCPU     3474.08
 DIIS TEST: 0.79056E-06 AT SCF   CYCLE  19 - DIIS ACTIVE - HISTORY:    19 CYCLES
 TTTTTTTTTTTTTTTTTTTTTTTTTTTTTT FDIK        TELAPSE     3498.95 TCPU     3475.51
 SPIN LOCKING: NO ENERGY GAP COMPUTED
 TTTTTTTTTTTTTTTTTTTTTTTTTTTTTT PDIG        TELAPSE     3499.16 TCPU     3475.71
 CHARGE NORMALIZATION FACTOR   1.00000000
 TOTAL ATOMIC CHARGES:
   0.1833099   0.1833089   0.1833099   0.1833090  18.1093212  18.1122626
  18.2170048  18.1093259   7.4740007   7.4557044   7.4739990   7.4557035
   7.4557079   7.4557154   7.4739871   7.4740298
 SUMMED SPIN DENSITY           1.00000000
 TOTAL ATOMIC SPINS  :
  -0.0005850  -0.0005850  -0.0005850  -0.0005850   0.5019002  -0.4759667
   0.1653624   0.5019053   0.0923947  -0.0151091   0.0923952  -0.0151089
  -0.0151108  -0.0151112   0.0924001   0.0923888
 TTTTTTTTTTTTTTTTTTTTTTTTTTTTTT MOQGAD      TELAPSE     3499.17 TCPU     3475.73
 TTTTTTTTTTTTTTTTTTTTTTTTTTTTTT SHELLXN     TELAPSE     3665.69 TCPU     3641.79
 TTTTTTTTTTTTTTTTTTTTTTTTTTTTTT MONMO3      TELAPSE     3669.25 TCPU     3645.27
 NUMERICALLY INTEGRATED DENSITY     66.9998717723     65.9998669732
 TTTTTTTTTTTTTTTTTTTTTTTTTTTTTT NUMDFT      TELAPSE     3672.08 TCPU     3648.09
 CYC  20 ETOT(AU) -9.209334351260E+02 DETOT -3.63E-08 tst  3.85E-09 PX  1.44E-04
 CYCLE 20 WAVE FUNCTION SAVED IN FORTRAN UNIT 79
 TTTTTTTTTTTTTTTTTTTTTTTTTTTTTT DIIS        TELAPSE     3672.62 TCPU     3648.53
 DIIS TEST: 0.12251E-06 AT SCF   CYCLE  20 - DIIS ACTIVE - HISTORY:    20 CYCLES
 TTTTTTTTTTTTTTTTTTTTTTTTTTTTTT FDIK        TELAPSE     3673.73 TCPU     3649.53
 SPIN LOCKING: NO ENERGY GAP COMPUTED
 TTTTTTTTTTTTTTTTTTTTTTTTTTTTTT PDIG        TELAPSE     3673.93 TCPU     3649.73
 CHARGE NORMALIZATION FACTOR   1.00000000
 TOTAL ATOMIC CHARGES:
   0.1833093   0.1833098   0.1833093   0.1833098  18.1092409  18.1121771
  18.2172608  18.1092435   7.4740114   7.4556991   7.4740106   7.4556983
   7.4557005   7.4556948   7.4740251   7.4739996
 SUMMED SPIN DENSITY           1.00000000
 TOTAL ATOMIC SPINS  :
  -0.0005855  -0.0005855  -0.0005855  -0.0005855   0.5019963  -0.4759550
   0.1651083   0.5020008   0.0923753  -0.0150767   0.0923756  -0.0150764
  -0.0150776  -0.0150791   0.0923732   0.0923774
 TTTTTTTTTTTTTTTTTTTTTTTTTTTTTT MOQGAD      TELAPSE     3673.94 TCPU     3649.74
 TTTTTTTTTTTTTTTTTTTTTTTTTTTTTT SHELLXN     TELAPSE     3841.00 TCPU     3815.69
 TTTTTTTTTTTTTTTTTTTTTTTTTTTTTT MONMO3      TELAPSE     3844.40 TCPU     3819.09
 NUMERICALLY INTEGRATED DENSITY     66.9998717727     65.9998669737
 TTTTTTTTTTTTTTTTTTTTTTTTTTTTTT NUMDFT      TELAPSE     3847.43 TCPU     3821.83
 CYC  21 ETOT(AU) -9.209334350417E+02 DETOT  8.43E-08 tst  1.77E-08 PX  3.43E-04
 CYCLE 21 WAVE FUNCTION SAVED IN FORTRAN UNIT 79
 TTTTTTTTTTTTTTTTTTTTTTTTTTTTTT DIIS        TELAPSE     3848.04 TCPU     3822.28
 DIIS TEST: 0.13162E-06 AT SCF   CYCLE  21 - DIIS ACTIVE - HISTORY:    21 CYCLES
 TTTTTTTTTTTTTTTTTTTTTTTTTTTTTT FDIK        TELAPSE     3849.27 TCPU     3823.40
 SPIN LOCKING: NO ENERGY GAP COMPUTED
 TTTTTTTTTTTTTTTTTTTTTTTTTTTTTT PDIG        TELAPSE     3849.47 TCPU     3823.61
 CHARGE NORMALIZATION FACTOR   1.00000000
 TOTAL ATOMIC CHARGES:
   0.1833097   0.1833095   0.1833096   0.1833094  18.1092684  18.1122159
  18.2171665  18.1092719   7.4740093   7.4557009   7.4740112   7.4557024
   7.4556989   7.4557008   7.4740057   7.4740102
 SUMMED SPIN DENSITY           1.00000000
 TOTAL ATOMIC SPINS  :
  -0.0005857  -0.0005857  -0.0005857  -0.0005857   0.5019743  -0.4759662
   0.1651686   0.5019777   0.0923815  -0.0150839   0.0923811  -0.0150836
  -0.0150847  -0.0150853   0.0923826   0.0923806
 TTTTTTTTTTTTTTTTTTTTTTTTTTTTTT MOQGAD      TELAPSE     3849.49 TCPU     3823.62
 TTTTTTTTTTTTTTTTTTTTTTTTTTTTTT SHELLXN     TELAPSE     4016.80 TCPU     3989.64
 TTTTTTTTTTTTTTTTTTTTTTTTTTTTTT MONMO3      TELAPSE     4020.20 TCPU     3993.04
 NUMERICALLY INTEGRATED DENSITY     66.9998717735     65.9998669712
 TTTTTTTTTTTTTTTTTTTTTTTTTTTTTT NUMDFT      TELAPSE     4023.06 TCPU     3995.90
 CYC  22 ETOT(AU) -9.209334350709E+02 DETOT -2.92E-08 tst  1.13E-09 PX  8.06E-05
 CYCLE 22 WAVE FUNCTION SAVED IN FORTRAN UNIT 79
 TTTTTTTTTTTTTTTTTTTTTTTTTTTTTT DIIS        TELAPSE     4023.66 TCPU     3996.21
 DIIS TEST: 0.79647E-08 AT SCF   CYCLE  22 - DIIS ACTIVE - HISTORY:    22 CYCLES
 TTTTTTTTTTTTTTTTTTTTTTTTTTTTTT FDIK        TELAPSE     4025.08 TCPU     3997.50
 SPIN LOCKING: NO ENERGY GAP COMPUTED
 TTTTTTTTTTTTTTTTTTTTTTTTTTTTTT PDIG        TELAPSE     4025.90 TCPU     3998.32
 CHARGE NORMALIZATION FACTOR   1.00000000
 TOTAL ATOMIC CHARGES:
   0.1833096   0.1833095   0.1833096   0.1833096  18.1092775  18.1122287
  18.2171397  18.1092775   7.4740069   7.4556990   7.4740037   7.4556967
   7.4557064   7.4557034   7.4740131   7.4740094
 SUMMED SPIN DENSITY           1.00000000
 TOTAL ATOMIC SPINS  :
  -0.0005860  -0.0005860  -0.0005860  -0.0005860   0.5019673  -0.4759727
   0.1651858   0.5019693   0.0923840  -0.0150852   0.0923847  -0.0150853
  -0.0150855  -0.0150861   0.0923838   0.0923838
 TTTTTTTTTTTTTTTTTTTTTTTTTTTTTT MOQGAD      TELAPSE     4025.92 TCPU     3998.34
 TTTTTTTTTTTTTTTTTTTTTTTTTTTTTT SHELLXN     TELAPSE     4193.37 TCPU     4164.39
 TTTTTTTTTTTTTTTTTTTTTTTTTTTTTT MONMO3      TELAPSE     4196.78 TCPU     4167.80
 NUMERICALLY INTEGRATED DENSITY     66.9998717746     65.9998669695
 TTTTTTTTTTTTTTTTTTTTTTTTTTTTTT NUMDFT      TELAPSE     4199.61 TCPU     4170.63
 CYC  23 ETOT(AU) -9.209334350767E+02 DETOT -5.75E-09 tst  1.02E-10 PX  2.41E-05
 CYCLE 23 WAVE FUNCTION SAVED IN FORTRAN UNIT 79
 TTTTTTTTTTTTTTTTTTTTTTTTTTTTTT DIIS        TELAPSE     4200.21 TCPU     4171.12
 DIIS TEST: 0.14233E-08 AT SCF   CYCLE  23 - DIIS ACTIVE - HISTORY:    23 CYCLES
 TTTTTTTTTTTTTTTTTTTTTTTTTTTTTT FDIK        TELAPSE     4201.33 TCPU     4172.13
 SPIN LOCKING: NO ENERGY GAP COMPUTED
 TTTTTTTTTTTTTTTTTTTTTTTTTTTTTT PDIG        TELAPSE     4201.53 TCPU     4172.33
 CHARGE NORMALIZATION FACTOR   1.00000000
 TOTAL ATOMIC CHARGES:
   0.1833097   0.1833095   0.1833096   0.1833095  18.1092749  18.1122270
  18.2171461  18.1092754   7.4740083   7.4557011   7.4740107   7.4557029
   7.4556992   7.4557013   7.4740059   7.4740089
 SUMMED SPIN DENSITY           1.00000000
 TOTAL ATOMIC SPINS  :
  -0.0005861  -0.0005861  -0.0005861  -0.0005861   0.5019682  -0.4759740
   0.1651808   0.5019704   0.0923843  -0.0150842   0.0923838  -0.0150840
  -0.0150846  -0.0150848   0.0923849   0.0923837
 TTTTTTTTTTTTTTTTTTTTTTTTTTTTTT MOQGAD      TELAPSE     4201.54 TCPU     4172.34
 TTTTTTTTTTTTTTTTTTTTTTTTTTTTTT SHELLXN     TELAPSE     4368.97 TCPU     4338.51
 TTTTTTTTTTTTTTTTTTTTTTTTTTTTTT MONMO3      TELAPSE     4372.37 TCPU     4341.91
 NUMERICALLY INTEGRATED DENSITY     66.9998717751     65.9998669689
 TTTTTTTTTTTTTTTTTTTTTTTTTTTTTT NUMDFT      TELAPSE     4375.22 TCPU     4344.76
 CYC  24 ETOT(AU) -9.209334350757E+02 DETOT  9.07E-10 tst  6.62E-12 PX  7.75E-06
 CYCLE 24 WAVE FUNCTION SAVED IN FORTRAN UNIT 79
 TTTTTTTTTTTTTTTTTTTTTTTTTTTTTT DIIS        TELAPSE     4375.80 TCPU     4345.30
 DIIS TEST: 0.65628E-09 AT SCF   CYCLE  24 - DIIS ACTIVE - HISTORY:    24 CYCLES
 TTTTTTTTTTTTTTTTTTTTTTTTTTTTTT FDIK        TELAPSE     4376.75 TCPU     4346.19
 SPIN LOCKING: NO ENERGY GAP COMPUTED
 TTTTTTTTTTTTTTTTTTTTTTTTTTTTTT PDIG        TELAPSE     4376.95 TCPU     4346.39
 CHARGE NORMALIZATION FACTOR   1.00000000
 TOTAL ATOMIC CHARGES:
   0.1833097   0.1833095   0.1833097   0.1833096  18.1092761  18.1122294
  18.2171413  18.1092769   7.4740082   7.4557007   7.4740077   7.4557004
   7.4557020   7.4557017   7.4740084   7.4740088
 SUMMED SPIN DENSITY           1.00000000
 TOTAL ATOMIC SPINS  :
  -0.0005862  -0.0005862  -0.0005862  -0.0005862   0.5019669  -0.4759756
   0.1651840   0.5019682   0.0923847  -0.0150843   0.0923849  -0.0150842
  -0.0150845  -0.0150847   0.0923850   0.0923845
 TTTTTTTTTTTTTTTTTTTTTTTTTTTTTT MOQGAD      TELAPSE     4376.97 TCPU     4346.41
 TTTTTTTTTTTTTTTTTTTTTTTTTTTTTT SHELLXN     TELAPSE     4545.56 TCPU     4512.64
 TTTTTTTTTTTTTTTTTTTTTTTTTTTTTT MONMO3      TELAPSE     4548.97 TCPU     4516.04
 NUMERICALLY INTEGRATED DENSITY     66.9998717755     65.9998669684
 TTTTTTTTTTTTTTTTTTTTTTTTTTTTTT NUMDFT      TELAPSE     4552.07 TCPU     4519.14
 CYC  25 ETOT(AU) -9.209334350771E+02 DETOT -1.34E-09 tst  4.10E-12 PX  4.49E-06
 CYCLE 25 WAVE FUNCTION SAVED IN FORTRAN UNIT 79
 TTTTTTTTTTTTTTTTTTTTTTTTTTTTTT DIIS        TELAPSE     4552.62 TCPU     4519.52
 DIIS TEST: 0.56961E-10 AT SCF   CYCLE  25 - DIIS ACTIVE - HISTORY:    25 CYCLES
 TTTTTTTTTTTTTTTTTTTTTTTTTTTTTT FDIK        TELAPSE     4553.64 TCPU     4520.45
 SPIN LOCKING: NO ENERGY GAP COMPUTED
 TTTTTTTTTTTTTTTTTTTTTTTTTTTTTT PDIG        TELAPSE     4553.85 TCPU     4520.66
 CHARGE NORMALIZATION FACTOR   1.00000000
 TOTAL ATOMIC CHARGES:
   0.1833097   0.1833096   0.1833096   0.1833095  18.1092769  18.1122295
  18.2171406  18.1092766   7.4740070   7.4557001   7.4740085   7.4557010
   7.4557015   7.4557024   7.4740087   7.4740087
 SUMMED SPIN DENSITY           1.00000000
 TOTAL ATOMIC SPINS  :
  -0.0005863  -0.0005863  -0.0005863  -0.0005863   0.5019663  -0.4759763
   0.1651845   0.5019673   0.0923852  -0.0150842   0.0923850  -0.0150841
  -0.0150843  -0.0150844   0.0923852   0.0923849
 TTTTTTTTTTTTTTTTTTTTTTTTTTTTTT MOQGAD      TELAPSE     4553.86 TCPU     4520.67
 TTTTTTTTTTTTTTTTTTTTTTTTTTTTTT SHELLXN     TELAPSE     4721.06 TCPU     4686.82
 TTTTTTTTTTTTTTTTTTTTTTTTTTTTTT MONMO3      TELAPSE     4724.46 TCPU     4690.23
 NUMERICALLY INTEGRATED DENSITY     66.9998717757     65.9998669680
 TTTTTTTTTTTTTTTTTTTTTTTTTTTTTT NUMDFT      TELAPSE     4727.80 TCPU     4693.56
 CYC  26 ETOT(AU) -9.209334350773E+02 DETOT -1.83E-10 tst  1.90E-12 PX  2.28E-06
 CYCLE 26 WAVE FUNCTION SAVED IN FORTRAN UNIT 79
 TTTTTTTTTTTTTTTTTTTTTTTTTTTTTT DIIS        TELAPSE     4728.42 TCPU     4694.13
 DIIS TEST: 0.52041E-10 AT SCF   CYCLE  26 - DIIS ACTIVE - HISTORY:    25 CYCLES
 TTTTTTTTTTTTTTTTTTTTTTTTTTTTTT FDIK        TELAPSE     4729.61 TCPU     4695.24
 SPIN LOCKING: NO ENERGY GAP COMPUTED
 TTTTTTTTTTTTTTTTTTTTTTTTTTTTTT PDIG        TELAPSE     4729.85 TCPU     4695.47
 CHARGE NORMALIZATION FACTOR   1.00000000
 TOTAL ATOMIC CHARGES:
   0.1833097   0.1833095   0.1833097   0.1833096  18.1092768  18.1122296
  18.2171405  18.1092768   7.4740082   7.4557008   7.4740078   7.4557007
   7.4557017   7.4557017   7.4740083   7.4740087
 SUMMED SPIN DENSITY           1.00000000
 TOTAL ATOMIC SPINS  :
  -0.0005863  -0.0005863  -0.0005863  -0.0005863   0.5019663  -0.4759765
   0.1651845   0.5019670   0.0923850  -0.0150841   0.0923852  -0.0150840
  -0.0150842  -0.0150843   0.0923853   0.0923849
 TTTTTTTTTTTTTTTTTTTTTTTTTTTTTT MOQGAD      TELAPSE     4729.87 TCPU     4695.50
 TTTTTTTTTTTTTTTTTTTTTTTTTTTTTT SHELLXN     TELAPSE     4896.62 TCPU     4861.47
 TTTTTTTTTTTTTTTTTTTTTTTTTTTTTT MONMO3      TELAPSE     4900.15 TCPU     4864.88
 NUMERICALLY INTEGRATED DENSITY     66.9998717758     65.9998669679
 TTTTTTTTTTTTTTTTTTTTTTTTTTTTTT NUMDFT      TELAPSE     4902.99 TCPU     4867.71
 CYC  27 ETOT(AU) -9.209334350773E+02 DETOT -3.88E-11 tst  2.85E-13 PX  8.41E-07
 CYCLE 27 WAVE FUNCTION SAVED IN FORTRAN UNIT 79
 TTTTTTTTTTTTTTTTTTTTTTTTTTTTTT DIIS        TELAPSE     4903.55 TCPU     4868.26
 DIIS TEST: 0.28508E-10 AT SCF   CYCLE  27 - DIIS ACTIVE - HISTORY:    26 CYCLES
 TTTTTTTTTTTTTTTTTTTTTTTTTTTTTT FDIK        TELAPSE     4904.37 TCPU     4869.08
 SPIN LOCKING: NO ENERGY GAP COMPUTED
 TTTTTTTTTTTTTTTTTTTTTTTTTTTTTT PDIG        TELAPSE     4904.58 TCPU     4869.28
 CHARGE NORMALIZATION FACTOR   1.00000000
 TOTAL ATOMIC CHARGES:
   0.1833097   0.1833096   0.1833097   0.1833096  18.1092765  18.1122297
  18.2171403  18.1092769   7.4740079   7.4557007   7.4740081   7.4557008
   7.4557018   7.4557018   7.4740084   7.4740087
 SUMMED SPIN DENSITY           1.00000000
 TOTAL ATOMIC SPINS  :
  -0.0005863  -0.0005863  -0.0005863  -0.0005863   0.5019663  -0.4759766
   0.1651843   0.5019667   0.0923851  -0.0150840   0.0923852  -0.0150839
  -0.0150841  -0.0150841   0.0923853   0.0923850
 TTTTTTTTTTTTTTTTTTTTTTTTTTTTTT MOQGAD      TELAPSE     4904.59 TCPU     4869.30
 TTTTTTTTTTTTTTTTTTTTTTTTTTTTTT SHELLXN     TELAPSE     5071.59 TCPU     5035.46
 +++ ENERGIES IN A.U. +++
 ::: EXT EL-POLE                                  -4.7112356793789E+03
 ::: EXT EL-SPHEROPOLE                             2.3107524486356E+01
 ::: BIELET ZONE E-E                               5.1302649080666E+03
 ::: TOTAL E-E                                     4.4213675317411E+02
 ::: TOTAL E-N + N-E                              -1.4651023882827E+03
 ::: TOTAL N-N                                    -4.1541873518440E+02
 ::: KINETIC ENERGY                                5.9933412920022E+02
 ::: PSEUDO TOTAL   ENERGY                        -8.3905024109278E+02
 ::: VIRIAL COEFFICIENT                            8.3334349507446E-01
 TTTTTTTTTTTTTTTTTTTTTTTTTTTTTT MONMO3      TELAPSE     5076.03 TCPU     5039.76
 NUMERICALLY INTEGRATED DENSITY     66.9998717759     65.9998669677
 TTTTTTTTTTTTTTTTTTTTTTTTTTTTTT NUMDFT      TELAPSE     5079.04 TCPU     5042.76
 CYC  28 ETOT(AU) -9.209334350773E+02 DETOT  1.09E-11 tst  6.58E-13 PX  8.41E-07

 == SCF ENDED - CONVERGENCE ON ENERGY      E(AU) -9.2093343507729E+02 CYCLES  28


 ENERGY EXPRESSION=HARTREE+FOCK EXCH*0.25000+(PBE        EXCH)*0.75000+PBE        CORR

 FINITE TEMPERATURE DFT CALCULATION 
 TEMPERATURE      (T)    1.000000000000E-13 HARTREE 
 ENERGY           (E)   -9.209334350773E+02
 FREE ENERGY      (F)   -9.209334350773E+02
 ELECTRON ENTROPY (S)    0.000000000000E+00
 (E(T)+F(T))/2    (E0)  -9.209334350773E+02


 TOTAL ENERGY(DFT)(AU)( 28) -9.2093343507729E+02 DE 1.1E-11 tester 6.6E-13
 TTTTTTTTTTTTTTTTTTTTTTTTTTTTTT EDFT        TELAPSE     5079.04 TCPU     5042.77
 EIGENVECTORS IN FORTRAN UNIT  8
 TTTTTTTTTTTTTTTTTTTTTTTTTTTTTT END         TELAPSE     5080.55 TCPU     5044.21
 EEEEEEEEEE TERMINATION  DATE 22 01 2018 TIME 14:27:25.3
NODE    0 CPU TIME =      5044.214
NODE    1 CPU TIME =      5046.498
NODE    2 CPU TIME =      5047.002
NODE    3 CPU TIME =      5046.531
NODE    4 CPU TIME =      5050.829
NODE    5 CPU TIME =      5043.593
NODE    6 CPU TIME =      5050.910
NODE    7 CPU TIME =      5051.541
NODE    8 CPU TIME =      5041.228
NODE    9 CPU TIME =      5043.086
NODE   10 CPU TIME =      5048.389
NODE   11 CPU TIME =      5042.086
NODE   12 CPU TIME =      5054.016
NODE   13 CPU TIME =      5050.750
NODE   14 CPU TIME =      5051.033
NODE   15 CPU TIME =      5048.468
NODE   16 CPU TIME =      5049.940
NODE   17 CPU TIME =      5048.556
NODE   18 CPU TIME =      5044.254
NODE   19 CPU TIME =      5049.947
NODE   20 CPU TIME =      5046.131
NODE   21 CPU TIME =      5053.046
NODE   22 CPU TIME =      5048.033
NODE   23 CPU TIME =      5051.079
NODE   24 CPU TIME =      5049.053
NODE   25 CPU TIME =      5051.652
NODE   26 CPU TIME =      5045.786
NODE   27 CPU TIME =      5046.917
NODE   28 CPU TIME =      5050.270
NODE   29 CPU TIME =      5050.674
NODE   30 CPU TIME =      5050.028
NODE   31 CPU TIME =      5046.317
    TOTAL CPU TIME =    161541.857
