--------------------------------------------------------------------------
WARNING: No preset parameters were found for the device that Open MPI
detected:

  Local host:            golub002
  Device name:           mlx4_0
  Device vendor ID:      0x02c9
  Device vendor part ID: 4099

Default device parameters will be used, which may result in lower
performance.  You can edit any of the files specified by the
btl_openib_device_param_files MCA parameter to set values for your
device.

NOTE: You can turn off this warning by setting the MCA parameter
      btl_openib_warn_no_device_params_found to 0.
--------------------------------------------------------------------------
 PROCESS            8  OF           16  WORKING
 PROCESS            9  OF           16  WORKING
 PROCESS            2  OF           16  WORKING
 PROCESS            1  OF           16  WORKING
 PROCESS            6  OF           16  WORKING
 PROCESS           15  OF           16  WORKING
 PROCESS           14  OF           16  WORKING
 PROCESS           11  OF           16  WORKING
 PROCESS            7  OF           16  WORKING
 PROCESS           12  OF           16  WORKING
 PROCESS            3  OF           16  WORKING
 PROCESS           10  OF           16  WORKING
 PROCESS            5  OF           16  WORKING
 PROCESS            0  OF           16  WORKING
 PROCESS            4  OF           16  WORKING
 PROCESS           13  OF           16  WORKING

         
 *******************************************************************************
 *                                                                             *
 *                               CRYSTAL17                                     *
 *                      public : 1.0.1 - Jun 21st, 2017                        *
 *                       HTTP://WWW.CRYSTAL.UNITO.IT                           *
 *                                                                             *
 *                              MAIN AUTHORS                                   *
 *                                                                             *
 *  R. DOVESI(1,11), V.R. SAUNDERS(2), C. ROETTI(1,11), R. ORLANDO(1,11),      *
 *  C.M. ZICOVICH-WILSON(1,3), F. PASCALE(4), B. CIVALLERI(1,11),              *
 *  K. DOLL(5), N.M. HARRISON(2,6), I.J. BUSH(7), Ph. D'ARCO(8),               *
 *  M. LLUNELL(9), M. CAUSA'(10), Y. NOEL(8), L. MASCHIO(1,11), A. ERBA(1,11)  *
 *  M. RE'RAT(14), S. CASASSA(1,11)                                            *
 *                                                                             *
 *        CONTRIBUTIONS TO THE CODE HAVE ALSO BEEN GIVEN BY                    *
 *                                                                             *
 *  M. FERRABONE(1,11), M. DE LA PIERRE(1,11), M. FERRERO(1,11),               *
 *  J. BAIMA(1,11), E. ALBANESE(1,11), M.F. PEINTINGER(12), R. BAST(13),       *
 *  B. KIRTMAN(15), V. LACIVITA(1,11), R. DEMICHELIS(1,16)                     *
 *  G. BRANDEBURG(17), S. SALUSTRO(1,11), G. SANSONE(1,11)                     *
 *  M.T. RUGGIERO(18)                                                          *
 *                                                                             *
 * (1) THEORETICAL CHEMISTRY GROUP - UNIVERSITA' DI TORINO - TORINO (ITALY)    *

 * (2) COMPUTATIONAL SCIENCE & ENGINEERING DEPARTMENT - STFC DARESBURY (UK)    *
 * (3) UNIVERSIDAD AUTONOMA DEL ESTADO DE MORELOS - CUERNAVACA (MEXICO)        *
 * (4) UNIVERSITE' DE LORRAINE - NANCY (FRANCE)                                *
 * (5) UNIVERSITAET STUTTGART- STUTTGART (GERMANY)                             *
 * (6) IMPERIAL COLLEGE - LONDON (UK)                                          *
 * (7) OXFORD E-RESEARCH CENTRE - OXFORD (UK)                                  *
 * (8) UPMC - SORBONNE UNIVERSITES - PARIS (FRANCE)                            *
 * (9) UNIVERSIDAD DE BARCELONA - BARCELONA (SPAIN)                            *
 *(10) UNIVERSITA' DI NAPOLI "FEDERICO II" - NAPOLI (ITALY)                    *
 *(11) NIS - NANOSTRUCTURED INTERFACES AND SURFACES - TORINO (ITALY)           *
 *(12) MPI FUER CHEMISCHE ENERGIEKONVERSION - MUELHEIM AN DER RUHR (GERMANY)   *
 *(13) UNIVERSITY OF TROMSO - TROMSO (NORWAY)                                  *
 *(14) UNIVERSITE' DE PAU ET DES PAYS DE L'ADOUR - PAU (FRANCE)                *
 *(15) UNIVERSITY OF CALIFORNIA SANTA BARBARA - SANTA BARBARA (USA)            *
 *(16) CURTIN UNIVERSITY - PERTH (AUSTRALIA)                                   *
 *(17) UNIVERSITY COLLEGE LONDON - LONDON (UK)                                 *
 *(18) CAMBRIDGE UNIVERSITY - CAMBRIDGE (UK)                                   *
 *                                                                             *
 *******************************************************************************
 EEEEEEEEEE STARTING  DATE 30 11 2017 TIME 14:12:04.1
 Generated by CrystalWriter                                                      

 CRYSTAL CALCULATION
 (INPUT ACCORDING TO THE INTERNATIONAL TABLES FOR X-RAY CRYSTALLOGRAPHY)
 CRYSTAL FAMILY                       :  TETRAGONAL  
 CRYSTAL CLASS  (GROTH - 1921)        :  DITETRAGONAL DIPYRAMIDAL             

 SPACE GROUP (CENTROSYMMETRIC)        :  P 4/M M M       

 LATTICE PARAMETERS  (ANGSTROMS AND DEGREES) - CONVENTIONAL CELL
        A           B           C        ALPHA        BETA       GAMMA
     3.92785     3.92785     3.43380    90.00000    90.00000    90.00000


 NUMBER OF IRREDUCIBLE ATOMS IN THE CONVENTIONAL CELL:    4

 INPUT COORDINATES

 ATOM AT. N.              COORDINATES
   1 238     5.000000000000E-01  5.000000000000E-01  5.000000000000E-01
   2 229     0.000000000000E+00  0.000000000000E+00  0.000000000000E+00
   3 208     0.000000000000E+00  5.000000000000E-01  0.000000000000E+00
   4 208     5.000000000000E-01  0.000000000000E+00  0.000000000000E+00

 *******************************************************************************

 << INFORMATION >>: FROM NOW ON, ALL COORDINATES REFER TO THE PRIMITIVE CELL

 *******************************************************************************

 LATTICE PARAMETERS  (ANGSTROMS AND DEGREES) - PRIMITIVE CELL
       A          B          C        ALPHA      BETA     GAMMA        VOLUME
    3.92785    3.92785    3.43380    90.00000  90.00000  90.00000     52.976686

 INPUT LIST - ATOM N.   4 NOT IRREDUCIBLE

 COORDINATES OF THE EQUIVALENT ATOMS (FRACTIONAL UNITS)

 N. ATOM EQUIV AT. N.          X                  Y                  Z

   1   1   1  238 SR   -5.00000000000E-01 -5.00000000000E-01 -5.00000000000E-01

   2   2   1  229 CU    0.00000000000E+00  0.00000000000E+00  0.00000000000E+00

   3   3   1  208 O     0.00000000000E+00 -5.00000000000E-01  0.00000000000E+00
   4   3   2  208 O     5.00000000000E-01  0.00000000000E+00  0.00000000000E+00

 NUMBER OF SYMMETRY OPERATORS         :   16
 *******************************************************************************
 * GEOMETRY EDITING - INPUT COORDINATES ARE GIVEN IN ANGSTROM         
 *******************************************************************************

 GEOMETRY NOW FULLY CONSISTENT WITH THE GROUP

 NO SYMMOPS WITH FINITE TRANSLATIONAL COMPONENT

 *******************************************************************************
 * SUPERCELL OPTION
 *******************************************************************************


        EXPANSION MATRIX OF PRIMITIVE CELL
 E1     2.000     0.000     0.000
 E2     0.000     2.000     0.000
 E3     0.000     0.000     1.000

 NUMBER OF ATOMS PER SUPERCELL    16

        DIRECT LATTICE VECTORS COMPONENTS (ANGSTROM)
 B1     7.856     0.000     0.000
 B2     0.000     7.856     0.000
 B3     0.000     0.000     3.434

 LATTICE PARAMETERS  (ANGSTROM AND DEGREES)
       A          B          C         ALPHA     BETA     GAMMA        VOLUME
    7.85570    7.85570    3.43380    90.00000  90.00000  90.00000    211.906743


 **** ATOMS BELONGING TO THE SUPERCELL
 LABEL AT.NO.      COORDINATES (ANGSTROM AND FRACTIONAL)
     1   238    -1.9639    -1.9639     1.7169    -0.2500    -0.2500     0.5000
     2   238    -1.9639     1.9639     1.7169    -0.2500     0.2500     0.5000
     3   238     1.9639    -1.9639     1.7169     0.2500    -0.2500     0.5000
     4   238     1.9639     1.9639     1.7169     0.2500     0.2500     0.5000
     5   229     0.0000     0.0000     0.0000     0.0000     0.0000     0.0000
     6   229     0.0000     3.9278     0.0000     0.0000     0.5000     0.0000
     7   229    -3.9278     0.0000     0.0000    -0.5000     0.0000     0.0000
     8   229    -3.9278     3.9278     0.0000    -0.5000     0.5000     0.0000
     9   208     0.0000    -1.9639     0.0000     0.0000    -0.2500     0.0000
    10   208     0.0000     1.9639     0.0000     0.0000     0.2500     0.0000
    11   208    -3.9278    -1.9639     0.0000    -0.5000    -0.2500     0.0000
    12   208    -3.9278     1.9639     0.0000    -0.5000     0.2500     0.0000
    13   208    -1.9639     0.0000     0.0000    -0.2500     0.0000     0.0000
    14   208    -1.9639     3.9278     0.0000    -0.2500     0.5000     0.0000
    15   208     1.9639     0.0000     0.0000     0.2500     0.0000     0.0000
    16   208     1.9639     3.9278     0.0000     0.2500     0.5000     0.0000

 **************************** SUPERCELL GENERATED ****************************
 SSSSSSSSSSSSSSSSSSSSSSSSSSSSSSSSSSSSSSSSSSSSSSSSSSSSSSSSSSSSSSSSSSSSSSSSSSSSSS
 REDUCTION OF SYMMETRY - ATOMIC LABELS SET TO (ATOM, AT. N., LABEL)
   1(238) 1;   2(238) 1;   3(238) 1;   4(238) 1;   5(229) 2;   6(229) 3;
   7(229) 3;   8(229) 2;   9(208) 4;  10(208) 4;  11(208) 4;  12(208) 4;
  13(208) 4;  14(208) 4;  15(208) 4;  16(208) 4;
 WARNING **** MODSYM **** GEOMETRICAL SYMMETRY NOT REDUCED

 GCALCO - MAX INDICES DIRECT LATTICE VECTOR    11    11    25
 NO.OF VECTORS CREATED 6999 STARS  550 RMAX   133.78549 BOHR

 GEOMETRY FOR WAVE FUNCTION - DIMENSIONALITY OF THE SYSTEM    3
 (NON PERIODIC DIRECTION: LATTICE PARAMETER FORMALLY SET TO 500)
 *******************************************************************************
 LATTICE PARAMETERS (ANGSTROMS AND DEGREES) - BOHR = 0.5291772083 ANGSTROM
 PRIMITIVE CELL - CENTRING CODE 1/0 VOLUME=   211.906743 - DENSITY  5.731 g/cm^3
         A              B              C           ALPHA      BETA       GAMMA 
     7.85570000     7.85570000     3.43380000    90.000000  90.000000  90.000000
 *******************************************************************************
 ATOMS IN THE ASYMMETRIC UNIT    6 - ATOMS IN THE UNIT CELL:   16
     ATOM                 X/A                 Y/B                 Z/C    
 *******************************************************************************
      1 T 238 SR   -2.500000000000E-01 -2.500000000000E-01  5.000000000000E-01
      2 F 238 SR   -2.500000000000E-01  2.500000000000E-01  5.000000000000E-01
      3 F 238 SR    2.500000000000E-01 -2.500000000000E-01  5.000000000000E-01
      4 F 238 SR    2.500000000000E-01  2.500000000000E-01  5.000000000000E-01
      5 T 229 CU    0.000000000000E+00  0.000000000000E+00  0.000000000000E+00
      6 T 229 CU    0.000000000000E+00 -5.000000000000E-01  0.000000000000E+00
      7 F 229 CU   -5.000000000000E-01  0.000000000000E+00  0.000000000000E+00
      8 T 229 CU   -5.000000000000E-01 -5.000000000000E-01  0.000000000000E+00
      9 T 208 O     0.000000000000E+00 -2.500000000000E-01  0.000000000000E+00
     10 F 208 O     0.000000000000E+00  2.500000000000E-01  0.000000000000E+00
     11 T 208 O    -5.000000000000E-01 -2.500000000000E-01  0.000000000000E+00
     12 F 208 O    -5.000000000000E-01  2.500000000000E-01  0.000000000000E+00
     13 F 208 O    -2.500000000000E-01  0.000000000000E+00  0.000000000000E+00
     14 F 208 O    -2.500000000000E-01 -5.000000000000E-01  0.000000000000E+00
     15 F 208 O     2.500000000000E-01  0.000000000000E+00  0.000000000000E+00
     16 F 208 O     2.500000000000E-01 -5.000000000000E-01  0.000000000000E+00

 T = ATOM BELONGING TO THE ASYMMETRIC UNIT

 ****   16 SYMMOPS - TRANSLATORS IN FRACTIONAL UNITS
 **** MATRICES AND TRANSLATORS IN THE CRYSTALLOGRAPHIC REFERENCE FRAME
   V INV                    ROTATION MATRICES                   TRANSLATORS
   1   1  1.00  0.00  0.00  0.00  1.00  0.00  0.00  0.00  1.00  0.00  0.00  0.00
   2   2 -1.00  0.00  0.00  0.00 -1.00  0.00  0.00  0.00  1.00  0.00  0.00  0.00
   3   3  1.00  0.00  0.00  0.00 -1.00  0.00  0.00  0.00 -1.00  0.00  0.00  0.00
   4   4 -1.00  0.00  0.00  0.00  1.00  0.00  0.00  0.00 -1.00  0.00  0.00  0.00
   5   5  0.00 -1.00  0.00 -1.00  0.00  0.00  0.00  0.00 -1.00  0.00  0.00  0.00
   6   6  0.00  1.00  0.00  1.00  0.00  0.00  0.00  0.00 -1.00  0.00  0.00  0.00
   7   8  0.00  1.00  0.00 -1.00  0.00  0.00  0.00  0.00  1.00  0.00  0.00  0.00
   8   7  0.00 -1.00  0.00  1.00  0.00  0.00  0.00  0.00  1.00  0.00  0.00  0.00
   9   9 -1.00  0.00  0.00  0.00 -1.00  0.00  0.00  0.00 -1.00  0.00  0.00  0.00
  10  10  1.00  0.00  0.00  0.00  1.00  0.00  0.00  0.00 -1.00  0.00  0.00  0.00
  11  11 -1.00  0.00  0.00  0.00  1.00  0.00  0.00  0.00  1.00  0.00  0.00  0.00
  12  12  1.00  0.00  0.00  0.00 -1.00  0.00  0.00  0.00  1.00  0.00  0.00  0.00
  13  13  0.00  1.00  0.00  1.00  0.00  0.00  0.00  0.00  1.00  0.00  0.00  0.00
  14  14  0.00 -1.00  0.00 -1.00  0.00  0.00  0.00  0.00  1.00  0.00  0.00  0.00
  15  16  0.00 -1.00  0.00  1.00  0.00  0.00  0.00  0.00 -1.00  0.00  0.00  0.00
  16  15  0.00  1.00  0.00 -1.00  0.00  0.00  0.00  0.00 -1.00  0.00  0.00  0.00

 DIRECT LATTICE VECTORS CARTESIAN COMPONENTS (ANGSTROM)
          X                    Y                    Z
   0.785570000000E+01   0.000000000000E+00   0.000000000000E+00
   0.000000000000E+00   0.785570000000E+01   0.000000000000E+00
   0.000000000000E+00   0.000000000000E+00   0.343380000000E+01


 CARTESIAN COORDINATES - PRIMITIVE CELL
 *******************************************************************************
 *      ATOM          X(ANGSTROM)         Y(ANGSTROM)         Z(ANGSTROM)
 *******************************************************************************
    1   238 SR   -1.963925000000E+00 -1.963925000000E+00  1.716900000000E+00
    2   238 SR   -1.963925000000E+00  1.963925000000E+00  1.716900000000E+00
    3   238 SR    1.963925000000E+00 -1.963925000000E+00  1.716900000000E+00
    4   238 SR    1.963925000000E+00  1.963925000000E+00  1.716900000000E+00
    5   229 CU    0.000000000000E+00  0.000000000000E+00  0.000000000000E+00
    6   229 CU    0.000000000000E+00  3.927850000000E+00  0.000000000000E+00
    7   229 CU    3.927850000000E+00  0.000000000000E+00  0.000000000000E+00
    8   229 CU    3.927850000000E+00  3.927850000000E+00  0.000000000000E+00
    9   208 O     0.000000000000E+00 -1.963925000000E+00  0.000000000000E+00
   10   208 O     0.000000000000E+00  1.963925000000E+00  0.000000000000E+00
   11   208 O     3.927850000000E+00 -1.963925000000E+00  0.000000000000E+00
   12   208 O     3.927850000000E+00  1.963925000000E+00  0.000000000000E+00
   13   208 O    -1.963925000000E+00  0.000000000000E+00  0.000000000000E+00
   14   208 O    -1.963925000000E+00  3.927850000000E+00  0.000000000000E+00
   15   208 O     1.963925000000E+00  0.000000000000E+00  0.000000000000E+00
   16   208 O     1.963925000000E+00  3.927850000000E+00  0.000000000000E+00

 *******************************************************************************
 *** PSEUDOPOTENTIAL INFORMATION ***
 *******************************************************************************

 ATOMIC NUMBER  29, NUCLEAR CHARGE 19.000, GIVEN IN INPUT       PSEUDOPOTENTIAL
   TYPE       EXPONENT      COEFF.    N      EXPONENT      COEFF.    N
  W0 TMS     6.2514963   19.0000000  -1     6.7272533  118.7784294   1
             6.6102459 -105.8998240   0
  P0 TMS    12.3656871  127.3506942   0
  P1 TMS    11.1607294   71.2298490   0

 ATOMIC NUMBER   8, NUCLEAR CHARGE  6.000, GIVEN IN INPUT       PSEUDOPOTENTIAL
   TYPE       EXPONENT      COEFF.    N      EXPONENT      COEFF.    N
  W0 TMS     9.2979390    6.0000000  -1     8.8649220   55.7876342   1
             8.6292567  -38.8197850   0
  P0 TMS     8.7192445   38.4191413   0

 ATOMIC NUMBER  38, NUCLEAR CHARGE  2.000, GIVEN IN INPUT       PSEUDOPOTENTIAL
   TYPE       EXPONENT      COEFF.    N      EXPONENT      COEFF.    N
  W0 TMS     4.3839388    2.0000000  -1     3.1964983    8.7678775   1
             0.9899150  -14.2552431   0
  P0 TMS     1.2868349  146.8716052   0
  P1 TMS     0.9567448  140.0262284   0
  P2 TMS     1.9483165   24.4454878   0

 *******************************************************************************
 LOCAL ATOMIC FUNCTIONS BASIS SET
 *******************************************************************************
   ATOM   X(AU)   Y(AU)   Z(AU)  N. TYPE  EXPONENT  S COEF   P COEF   D/F/G COEF
 *******************************************************************************
   1 SR  -3.711  -3.711   3.244
                                  1 S  
                                         2.177E-01-9.389E-02 0.000E+00 0.000E+00
                                         4.871E-01-2.476E-01 0.000E+00 0.000E+00
                                         1.090E+00 1.601E-01 0.000E+00 0.000E+00
                                         2.439E+00-4.360E-02 0.000E+00 0.000E+00
                                         5.457E+00 8.684E-03 0.000E+00 0.000E+00
                                         1.221E+01-1.296E-03 0.000E+00 0.000E+00
                           2-     4 P  
                                         2.236E-01 0.000E+00-4.747E-02 0.000E+00
                                         4.507E-01 0.000E+00-1.710E-01 0.000E+00
                                         9.086E-01 0.000E+00 1.048E-01 0.000E+00
                                         1.831E+00 0.000E+00-2.952E-02 0.000E+00
                                         3.692E+00 0.000E+00 6.196E-03 0.000E+00
                                         7.442E+00 0.000E+00-9.550E-04 0.000E+00
                           5-     9 D  
                                         5.283E-01 0.000E+00 0.000E+00 1.000E+00
                                 10 S  
                                         2.000E-01 1.000E+00 0.000E+00 0.000E+00
                                 11 S  
                                         6.000E-01 1.000E+00 0.000E+00 0.000E+00
                          12-    14 P  
                                         2.000E-01 0.000E+00 1.000E+00 0.000E+00
                          15-    17 P  
                                         6.000E-01 0.000E+00 1.000E+00 0.000E+00
   2 SR  -3.711   3.711   3.244
   3 SR   3.711  -3.711   3.244
   4 SR   3.711   3.711   3.244
   5 CU   0.000   0.000   0.000
                                 69 S  
                                         2.785E+01-1.934E-02 0.000E+00 0.000E+00
                                         2.142E+01 8.861E-02 0.000E+00 0.000E+00
                                         1.054E+01-3.559E-01 0.000E+00 0.000E+00
                                         2.536E+00 5.381E-01 0.000E+00 0.000E+00
                                         1.250E+00 5.111E-01 0.000E+00 0.000E+00
                                         5.998E-01 1.476E-01 0.000E+00 0.000E+00
                                 70 S  
                                         2.785E+01-2.653E-03 0.000E+00 0.000E+00
                                         2.142E+01-7.542E-03 0.000E+00 0.000E+00
                                         1.054E+01 7.976E-02 0.000E+00 0.000E+00
                                         2.536E+00-1.553E-01 0.000E+00 0.000E+00
                                         1.250E+00-2.531E-01 0.000E+00 0.000E+00
                                         5.998E-01-2.817E-02 0.000E+00 0.000E+00
                          71-    73 P  
                                         1.859E+01 0.000E+00 3.652E-03 0.000E+00
                                         1.430E+01 0.000E+00-3.708E-02 0.000E+00
                                         5.631E+00 0.000E+00 2.171E-01 0.000E+00
                                         2.683E+00 0.000E+00 4.410E-01 0.000E+00
                                         1.259E+00 0.000E+00 3.587E-01 0.000E+00
                                         5.741E-01 0.000E+00 1.148E-01 0.000E+00
                                         2.092E-01 0.000E+00 7.316E-03 0.000E+00
                          74-    78 D  
                                         1.579E+01 0.000E+00 0.000E+00 8.422E-02
                                         7.203E+00 0.000E+00 0.000E+00 2.554E-01
                                         2.974E+00 0.000E+00 0.000E+00 3.500E-01
                                         1.207E+00 0.000E+00 0.000E+00 3.417E-01
                                         4.640E-01 0.000E+00 0.000E+00 2.417E-01
                          79-    85 F  
                                         1.692E+00 0.000E+00 0.000E+00 1.000E+00
                                 86 S  
                                         2.000E-01 1.000E+00 0.000E+00 0.000E+00
                                 87 S  
                                         6.000E-01 1.000E+00 0.000E+00 0.000E+00
                          88-    90 P  
                                         2.000E-01 0.000E+00 1.000E+00 0.000E+00
                          91-    93 P  
                                         6.000E-01 0.000E+00 1.000E+00 0.000E+00
                          94-    98 D  
                                         2.000E-01 0.000E+00 0.000E+00 1.000E+00
                          99-   103 D  
                                         6.000E-01 0.000E+00 0.000E+00 1.000E+00
   6 CU   0.000   7.423   0.000
   7 CU   7.423   0.000   0.000
   8 CU   7.423   7.423   0.000
   9 O    0.000  -3.711   0.000
                                209 S  
                                         2.680E-01 3.048E-01 0.000E+00 0.000E+00
                                         5.731E-01 4.538E-01 0.000E+00 0.000E+00
                                         1.225E+00 2.959E-01 0.000E+00 0.000E+00
                                         2.620E+00 1.957E-02 0.000E+00 0.000E+00
                                         5.603E+00-1.286E-01 0.000E+00 0.000E+00
                                         1.198E+01 1.202E-02 0.000E+00 0.000E+00
                                         2.562E+01 4.070E-04 0.000E+00 0.000E+00
                                         5.478E+01-7.600E-05 0.000E+00 0.000E+00
                         210-   212 P  
                                         3.337E-01 0.000E+00 2.560E-01 0.000E+00
                                         6.666E-01 0.000E+00 2.819E-01 0.000E+00
                                         1.332E+00 0.000E+00 2.428E-01 0.000E+00
                                         2.661E+00 0.000E+00 1.611E-01 0.000E+00
                                         5.316E+00 0.000E+00 8.231E-02 0.000E+00
                                         1.062E+01 0.000E+00 3.990E-02 0.000E+00
                                         2.122E+01 0.000E+00 4.679E-03 0.000E+00
                         213-   217 D  
                                         6.693E-01 0.000E+00 0.000E+00 1.000E+00
                         218-   224 F  
                                         1.423E+00 0.000E+00 0.000E+00 1.000E+00
                                225 S  
                                         2.000E-01 1.000E+00 0.000E+00 0.000E+00
                                226 S  
                                         6.000E-01 1.000E+00 0.000E+00 0.000E+00
                         227-   229 P  
                                         2.000E-01 0.000E+00 1.000E+00 0.000E+00
                         230-   232 P  
                                         6.000E-01 0.000E+00 1.000E+00 0.000E+00
  10 O    0.000   3.711   0.000
  11 O    7.423  -3.711   0.000
  12 O    7.423   3.711   0.000
  13 O   -3.711   0.000   0.000
  14 O   -3.711   7.423   0.000
  15 O    3.711   0.000   0.000
  16 O    3.711   7.423   0.000
 INFORMATION **** SET_MPP **** PCRYSTAL CALCULATION
 INFORMATION **** READM2 **** NEW DEFAULT: FOCK/KS MATRIX MIXING SET TO 30 %
 INFORMATION **** READM2 **** NEW DEFAULT: FULL DIRECT SCF MODE
 INFORMATION **** READM2 **** NEW DEFAULT: COULOMB BIPOLAR BUFFER SET TO 32 Mb
 INFORMATION **** READM2 **** NEW DEFAULT: EXCHANGE BIPOLAR BUFFER SET TO 32 Mb

 *******************************************************************************
 NEW DEFAULT: DFT INTEGRATION GRID INCREASED TO XLGRID
 NEW DEFAULT: DIIS ACCELERATOR ACTIVE
 USE KEYWORD NODIIS TO TURN IT OFF
 *******************************************************************************

 INFORMATION **** READM2 **** FULL DIRECT SCF (MONO AND BIEL INT) SELECTED
 INFORMATION **** BIPOSIZE **** COULOMB BIPOLAR BUFFER SET TO   100000000
 INFORMATION **** EXCHSIZE **** EXCHANGE BIPOLAR BUFFER SIZE SET TO    10000000
 INFORMATION **** TOLDEE **** SCF TOL ON TOTAL ENERGY SET TO          10
 INFORMATION **** TOLINTEG **** COULOMB AND EXCHANGE SERIES TOLERANCES MODIFIED
 INFORMATION **** MAXCYCLE **** MAX NUMBER OF SCF CYCLES SET TO         200
 INFORMATION **** SMEAR **** FERMI SMEARING ACTIVE
 FERMI SMEARING - TEMPERATURE SMEARING OF FERMI SURFACE  0.1000E-12
 INFORMATION **** SAVEWF **** not fully tested
 INFORMATION **** SPINLOCK **** LOCK IN A GIVEN SPIN STATE
 ALPHA-BETA ELECTRONS LOCKED TO   0 FOR 200 SCF CYCLES
 SSSSSSSSSSSSSSSSSSSSSSSSSSSSSSSSSSSSSSSSSSSSSSSSSSSSSSSSSSSSSSSSSSSSSSSSSSSSSS
 ATOMIC SPINS SET TO (ATOM, AT. N., SPIN)
   1 238 0   2 238 0   3 238 0   4 238 0   5 229 1   6 229-1   7 229-1   8 229 1
   9 208 0  10 208 0  11 208 0  12 208 0  13 208 0  14 208 0  15 208 0  16 208 0
 *******************************************************************************
 N. OF ATOMS PER CELL        16  COULOMB OVERLAP TOL         (T1) 10**   -8
 NUMBER OF SHELLS           136  COULOMB PENETRATION TOL     (T2) 10**   -8
 NUMBER OF AO               400  EXCHANGE OVERLAP TOL        (T3) 10**   -8
 N. OF ELECTRONS PER CELL   132  EXCHANGE PSEUDO OVP (F(G))  (T4) 10**   -8
 CORE ELECTRONS PER CELL      0  EXCHANGE PSEUDO OVP (P(G))  (T5) 10**  -16
 N. OF SYMMETRY OPERATORS    16  POLE ORDER IN MONO ZONE                  4
 *******************************************************************************
 TYPE OF CALCULATION :  UNRESTRICTED OPEN SHELL
 KOHN-SHAM HAMILTONIAN

 (EXCHANGE)[CORRELATION] FUNCTIONAL:(PBEsol GGA)[PBEsol]


 HYBRID EXCHANGE - PERCENTAGE OF FOCK EXCHANGE    25.0000

 SPIN POLARIZED DFT SELECTED
 CORE  PSEUDO POTENTIAL         TOL. ON PSEUDO              (TP) 10**- 6

 CAPPA:IS1  6;IS2  6;IS3  4; K PTS MONK NET  30; SYMMOPS:K SPACE  16;G SPACE  16

 *******************************************************************************
 MAX NUMBER OF SCF CYCLES     200  CONVERGENCE ON DELTAP        10**-20
 WEIGHT OF F(I) IN F(I+1)      90% CONVERGENCE ON ENERGY        10**-10
 SHRINK. FACT.(MONKH.)    6  6  4  NUMBER OF K POINTS IN THE IBZ     30
 SHRINKING FACTOR(GILAT NET)   12  NUMBER OF K POINTS(GILAT NET)    140
 *******************************************************************************
 *** K POINTS COORDINATES (OBLIQUE COORDINATES IN UNITS OF IS =  6)
   1-R(  0  0  0)   2-C(  1  0  0)   3-C(  2  0  0)   4-R(  3  0  0)
   5-C(  1  1  0)   6-C(  2  1  0)   7-C(  3  1  0)   8-C(  2  2  0)
   9-C(  3  2  0)  10-R(  3  3  0)  11-C(  0  0  1)  12-C(  1  0  1)
  13-C(  2  0  1)  14-C(  3  0  1)  15-C(  1  1  1)  16-C(  2  1  1)
  17-C(  3  1  1)  18-C(  2  2  1)  19-C(  3  2  1)  20-C(  3  3  1)
  21-R(  0  0  2)  22-C(  1  0  2)  23-C(  2  0  2)  24-R(  3  0  2)
  25-C(  1  1  2)  26-C(  2  1  2)  27-C(  3  1  2)  28-C(  2  2  2)
  29-C(  3  2  2)  30-R(  3  3  2)

 DIRECT LATTICE VECTORS COMPON. (A.U.)     RECIP. LATTICE VECTORS COMPON. (A.U.) 
        X            Y            Z              X            Y            Z
   14.8451216    0.0000000    0.0000000      0.4232492    0.0000000    0.0000000
    0.0000000   14.8451216    0.0000000      0.0000000    0.4232492    0.0000000
    0.0000000    0.0000000    6.4889416      0.0000000    0.0000000    0.9682912

 DISK SPACE FOR EIGENVECTORS (FTN 10)     8640000 REALS

 SYMMETRY ADAPTION OF THE BLOCH FUNCTIONS ENABLED
 TTTTTTTTTTTTTTTTTTTTTTTTTTTTTT gordsh1     TELAPSE        1.46 TCPU        0.04

 MATRIX SIZE: P(G) 1263000, F(G)  225436, P(G) IRR   69128, F(G) IRR   29980
 MAX G-VECTOR INDEX FOR 1- AND 2-ELECTRON INTEGRALS 103

 TTTTTTTTTTTTTTTTTTTTTTTTTTTTTT INPUT       TELAPSE        1.47 TCPU        0.05

 NEIGHBORS OF THE NON-EQUIVALENT ATOMS

 N = NUMBER OF NEIGHBORS AT DISTANCE R
    ATOM  N     R/ANG      R/AU   NEIGHBORS (ATOM LABELS AND CELL INDICES)
   1 SR   8     2.6086     4.9295    9 O    0 0 0    9 O    0 0 1   11 O   -1 0 0
                                    11 O   -1 0 1   13 O    0 0 1   13 O    0 0 0
                                    14 O    0-1 1   14 O    0-1 0
   1 SR   8     3.2652     6.1704    5 CU   0 0 0    5 CU   0 0 1    6 CU   0-1 0
                                     6 CU   0-1 1    7 CU  -1 0 1    7 CU  -1 0 0
                                     8 CU  -1-1 0    8 CU  -1-1 1
   1 SR   2     3.4338     6.4889    1 SR   0 0-1    1 SR   0 0 1
   1 SR   4     3.9278     7.4226    2 SR   0 0 0    2 SR   0-1 0    3 SR   0 0 0
                                     3 SR  -1 0 0
   1 SR  16     4.7152     8.9104   10 O    0 0 1   10 O    0 0 0   10 O    0-1 1
                                    10 O    0-1 0   12 O   -1 0 1   12 O   -1 0 0
                                    12 O   -1-1 1   12 O   -1-1 0   15 O    0 0 0
                                    15 O    0 0 1   15 O   -1 0 0   15 O   -1 0 1
                                    16 O    0-1 0   16 O    0-1 1   16 O   -1-1 0
                                    16 O   -1-1 1
   1 SR   8     5.2172     9.8590    2 SR   0 0 1    2 SR   0 0-1    2 SR   0-1-1
                                     2 SR   0-1 1    3 SR   0 0 1    3 SR   0 0-1
                                     3 SR  -1 0-1    3 SR  -1 0 1

   5 CU   4     1.9639     3.7113    9 O    0 0 0   10 O    0 0 0   13 O    0 0 0
                                    15 O    0 0 0
   5 CU   8     3.2652     6.1704    1 SR   0 0 0    1 SR   0 0-1    2 SR   0 0-1
                                     2 SR   0 0 0    3 SR   0 0-1    3 SR   0 0 0
                                     4 SR   0 0 0    4 SR   0 0-1
   5 CU   2     3.4338     6.4889    5 CU   0 0-1    5 CU   0 0 1
   5 CU   4     3.9278     7.4226    6 CU   0 0 0    6 CU   0-1 0    7 CU  -1 0 0
                                     7 CU   0 0 0
   5 CU   8     3.9558     7.4753    9 O    0 0 1    9 O    0 0-1   10 O    0 0-1
                                    10 O    0 0 1   13 O    0 0 1   13 O    0 0-1
                                    15 O    0 0-1   15 O    0 0 1
   5 CU   8     4.3915     8.2987   11 O   -1 0 0   11 O    0 0 0   12 O    0 0 0
                                    12 O   -1 0 0   14 O    0-1 0   14 O    0 0 0
                                    16 O    0 0 0   16 O    0-1 0

   6 CU   4     1.9639     3.7113    9 O    0 1 0   10 O    0 0 0   14 O    0 0 0
                                    16 O    0 0 0
   6 CU   8     3.2652     6.1704    1 SR   0 1 0    1 SR   0 1-1    2 SR   0 0-1
                                     2 SR   0 0 0    3 SR   0 1-1    3 SR   0 1 0
                                     4 SR   0 0 0    4 SR   0 0-1
   6 CU   2     3.4338     6.4889    6 CU   0 0-1    6 CU   0 0 1
   6 CU   4     3.9278     7.4226    5 CU   0 0 0    5 CU   0 1 0    8 CU  -1 0 0
                                     8 CU   0 0 0
   6 CU   8     3.9558     7.4753    9 O    0 1 1    9 O    0 1-1   10 O    0 0 1
                                    10 O    0 0-1   14 O    0 0 1   14 O    0 0-1
                                    16 O    0 0-1   16 O    0 0 1
   6 CU   8     4.3915     8.2987   11 O    0 1 0   11 O   -1 1 0   12 O   -1 0 0
                                    12 O    0 0 0   13 O    0 0 0   13 O    0 1 0
                                    15 O    0 1 0   15 O    0 0 0

   8 CU   4     1.9639     3.7113   11 O    0 1 0   12 O    0 0 0   14 O    1 0 0
                                    16 O    0 0 0
   8 CU   8     3.2652     6.1704    1 SR   1 1 0    1 SR   1 1-1    2 SR   1 0-1
                                     2 SR   1 0 0    3 SR   0 1-1    3 SR   0 1 0
                                     4 SR   0 0 0    4 SR   0 0-1
   8 CU   2     3.4338     6.4889    8 CU   0 0-1    8 CU   0 0 1
   8 CU   4     3.9278     7.4226    6 CU   1 0 0    6 CU   0 0 0    7 CU   0 0 0
                                     7 CU   0 1 0
   8 CU   8     3.9558     7.4753   11 O    0 1 1   11 O    0 1-1   12 O    0 0 1
                                    12 O    0 0-1   14 O    1 0-1   14 O    1 0 1
                                    16 O    0 0-1   16 O    0 0 1
   8 CU   8     4.3915     8.2987    9 O    0 1 0    9 O    1 1 0   10 O    1 0 0
                                    10 O    0 0 0   13 O    1 0 0   13 O    1 1 0
                                    15 O    0 1 0   15 O    0 0 0

   9 O    2     1.9639     3.7113    5 CU   0 0 0    6 CU   0-1 0
   9 O    4     2.6086     4.9295    1 SR   0 0 0    1 SR   0 0-1    3 SR   0 0 0
                                     3 SR   0 0-1
   9 O    4     2.7774     5.2485   13 O    0 0 0   14 O    0-1 0   15 O    0 0 0
                                    16 O    0-1 0
   9 O    2     3.4338     6.4889    9 O    0 0-1    9 O    0 0 1
   9 O    4     3.9278     7.4226   10 O    0 0 0   10 O    0-1 0   11 O   -1 0 0
                                    11 O    0 0 0
   9 O    4     3.9558     7.4753    5 CU   0 0-1    5 CU   0 0 1    6 CU   0-1-1
                                     6 CU   0-1 1

  11 O    2     1.9639     3.7113    7 CU   0 0 0    8 CU   0-1 0
  11 O    4     2.6086     4.9295    1 SR   1 0 0    1 SR   1 0-1    3 SR   0 0 0
                                     3 SR   0 0-1
  11 O    4     2.7774     5.2485   13 O    1 0 0   14 O    1-1 0   15 O    0 0 0
                                    16 O    0-1 0
  11 O    2     3.4338     6.4889   11 O    0 0-1   11 O    0 0 1
  11 O    4     3.9278     7.4226    9 O    1 0 0    9 O    0 0 0   12 O    0 0 0
                                    12 O    0-1 0
  11 O    4     3.9558     7.4753    7 CU   0 0-1    7 CU   0 0 1    8 CU   0-1-1
                                     8 CU   0-1 1


 SYMMETRY ALLOWED INTERNAL DEGREE(S) OF FREEDOM:   3
 TTTTTTTTTTTTTTTTTTTTTTTTTTTTTT SYMM        TELAPSE        1.90 TCPU        0.46
 TTTTTTTTTTTTTTTTTTTTTTTTTTTTTT INT_SCREEN  TELAPSE        1.96 TCPU        0.52
 INFORMATION **** EXCBUF **** EXCH. BIPO BUFFER: WORDS USED =     4000572

 DFT PARAMETERS

     ATOM       ELECTRONS   NET CHARGE   R(ANGSTROM)
   1 238  SR      0.0000      2.0000     1.18000000
   5 229  CU     17.0000      2.0000     0.73000000
   9 208  O       8.0000     -2.0000     1.40000000

 SIZE OF GRID=      24742
 TTTTTTTTTTTTTTTTTTTTTTTTTTTTTT MAKE_GRID2  TELAPSE        3.53 TCPU        2.09
 BECKE WEIGHT FUNCTION
 RADSAFE =     2.00
 TOLERANCES - DENSITY:10**- 6; POTENTIAL:10**- 9; GRID WGT:10**-14

 RADIAL INTEGRATION  - INTERVALS (POINTS,UPPER LIMIT):            1( 75,  4.0*R)

 ANGULAR INTEGRATION - INTERVALS (ACCURACY LEVEL [N. POINTS] UPPER LIMIT):
  1(  4[  86]   0.2)  2(  8[ 194]   0.5)  3( 12[ 350]   0.9)  4( 16[ 974]   3.5)
  5( 12[ 350]9999.0)
 TTTTTTTTTTTTTTTTTTTTTTTTTTTTTT INT_CALC    TELAPSE        3.61 TCPU        2.15
 EEEEEEEEEE INT_CALC TERMINATION  DATE 30 11 2017 TIME 14:12:06.5

 *******************************************************************************
 Generated by CrystalWriter                                                      
 CRYSTAL - SCF - TYPE OF CALCULATION :  UNRESTRICTED OPEN SHELL
 *******************************************************************************

 CAPPA:IS1  6;IS2  6;IS3  4; K PTS MONK NET  30; SYMMOPS:K SPACE  16;G SPACE  16

 TTTTTTTTTTTTTTTTTTTTTTTTTTTTTT SDIK        TELAPSE        3.70 TCPU        2.22

 AAAAAAAAAAAAAAAAAAAAAAAAAAAAAAAAAAAAAAAAAAAAAAAAAAAAAAAAAAAAAAAAAAAAAAAAAAAAAAA
         ATOMIC WAVEFUNCTION(S)


 NUCLEAR CHARGE 19.0  SYMMETRY SPECIES            S    P    D
 N. ELECTRONS   17.0  NUMBER OF PRIMITIVE GTOS   14    9    7
                      NUMBER OF CONTRACTED GTOS   4    3    3
                      NUMBER OF CLOSED SHELLS     1    1    0
                      OPEN SHELL OCCUPATION       0    0    9

  ZNUC SCFIT  TOTAL HF ENERGY   KINETIC ENERGY   VIRIAL THEOREM ACCURACY
  19.0  24   -1.953432393E+02  1.248337040E+02 -2.564827712E+00  3.3E-06

 NUCLEAR CHARGE  6.0  SYMMETRY SPECIES            S    P
 N. ELECTRONS    8.0  NUMBER OF PRIMITIVE GTOS   10    9
                      NUMBER OF CONTRACTED GTOS   3    3
                      NUMBER OF CLOSED SHELLS     1    1
                      OPEN SHELL OCCUPATION       0    0

  ZNUC SCFIT  TOTAL HF ENERGY   KINETIC ENERGY   VIRIAL THEOREM ACCURACY
   6.0  43   -1.519668598E+01  1.229882609E+01 -2.235620852E+00  4.1E-06

 AAAAAAAAAAAAAAAAAAAAAAAAAAAAAAAAAAAAAAAAAAAAAAAAAAAAAAAAAAAAAAAAAAAAAAAAAAAAAAA

 CHARGE NORMALIZATION FACTOR   1.00000000
 TOTAL ATOMIC CHARGES:
   0.0000000   0.0000000   0.0000000   0.0000000  17.0000000  17.0000000
  17.0000000  17.0000000   8.0000000   8.0000000   8.0000000   8.0000000
   8.0000000   8.0000000   8.0000000   8.0000000
 SUMMED SPIN DENSITY           0.00000000
 TOTAL ATOMIC SPINS  :
   0.0000000   0.0000000   0.0000000   0.0000000   1.0000000  -1.0000000
  -1.0000000   1.0000000   0.0000000   0.0000000   0.0000000   0.0000000
   0.0000000   0.0000000   0.0000000   0.0000000
 TTTTTTTTTTTTTTTTTTTTTTTTTTTTTT MOQGAD      TELAPSE        3.81 TCPU        2.34
[golub002:87986] 15 more processes have sent help message help-mpi-btl-openib.txt / no device params found
[golub002:87986] Set MCA parameter "orte_base_help_aggregate" to 0 to see all help / error messages
 TTTTTTTTTTTTTTTTTTTTTTTTTTTTTT SHELLXN     TELAPSE       64.91 TCPU       63.35
 TTTTTTTTTTTTTTTTTTTTTTTTTTTTTT MONMO3      TELAPSE       86.88 TCPU       85.30
 NUMERICALLY INTEGRATED DENSITY     66.0000572651     66.0000572651
 TTTTTTTTTTTTTTTTTTTTTTTTTTTTTT NUMDFT      TELAPSE       87.35 TCPU       85.76
 CYC   0 ETOT(AU) -9.198168294500E+02 DETOT -9.20E+02 tst  0.00E+00 PX  1.00E+00
 CYCLE  0 WAVE FUNCTION SAVED IN FORTRAN UNIT 79
 TTTTTTTTTTTTTTTTTTTTTTTTTTTTTT DIIS        TELAPSE       87.50 TCPU       85.90
 TTTTTTTTTTTTTTTTTTTTTTTTTTTTTT FDIK        TELAPSE       89.60 TCPU       87.99
 SPIN LOCKING: NO ENERGY GAP COMPUTED
 TTTTTTTTTTTTTTTTTTTTTTTTTTTTTT PDIG        TELAPSE       89.86 TCPU       88.25
 CHARGE NORMALIZATION FACTOR   1.00000000
 TOTAL ATOMIC CHARGES:
   0.1563149   0.1563149   0.1563149   0.1563149  18.2329057  18.2329055
  18.2329055  18.2329070   7.3053897   7.3053897   7.3053894   7.3053894
   7.3053897   7.3053894   7.3053897   7.3053894
 SUMMED SPIN DENSITY           0.00000000
 TOTAL ATOMIC SPINS  :
   0.0000000   0.0000000   0.0000000   0.0000000   0.3640670  -0.3640670
  -0.3640670   0.3640670  -0.0000000  -0.0000000   0.0000000   0.0000000
  -0.0000000   0.0000000  -0.0000000   0.0000000
 TTTTTTTTTTTTTTTTTTTTTTTTTTTTTT MOQGAD      TELAPSE       89.89 TCPU       88.28
 TTTTTTTTTTTTTTTTTTTTTTTTTTTTTT SHELLXN     TELAPSE      154.82 TCPU      153.21
 TTTTTTTTTTTTTTTTTTTTTTTTTTTTTT MONMO3      TELAPSE      178.10 TCPU      176.49
 NUMERICALLY INTEGRATED DENSITY     66.0000485592     66.0000485716
 TTTTTTTTTTTTTTTTTTTTTTTTTTTTTT NUMDFT      TELAPSE      179.56 TCPU      177.95
 CYC   1 ETOT(AU) -9.203127636460E+02 DETOT -4.96E-01 tst  0.00E+00 PX  1.00E+00
 CYCLE  1 WAVE FUNCTION SAVED IN FORTRAN UNIT 79
 TTTTTTTTTTTTTTTTTTTTTTTTTTTTTT DIIS        TELAPSE      179.80 TCPU      178.18
 DIIS TEST: 0.10897E+00 AT SCF   CYCLE   1 - MIX   90 %
 TTTTTTTTTTTTTTTTTTTTTTTTTTTTTT FDIK        TELAPSE      180.33 TCPU      178.71
 SPIN LOCKING: NO ENERGY GAP COMPUTED
 TTTTTTTTTTTTTTTTTTTTTTTTTTTTTT PDIG        TELAPSE      180.59 TCPU      178.96
 CHARGE NORMALIZATION FACTOR   1.00000000
 TOTAL ATOMIC CHARGES:
   0.1575892   0.1575892   0.1575892   0.1575892  18.2049755  18.2049798
  18.2049798  18.2049755   7.3187167   7.3187167   7.3187164   7.3187164
   7.3187167   7.3187164   7.3187167   7.3187164
 SUMMED SPIN DENSITY           0.00000000
 TOTAL ATOMIC SPINS  :
  -0.0000038  -0.0000038  -0.0000038  -0.0000038   0.3829465  -0.3829631
  -0.3829631   0.3829480   0.0000059   0.0000059   0.0000058   0.0000058
   0.0000059   0.0000058   0.0000059   0.0000058
 TTTTTTTTTTTTTTTTTTTTTTTTTTTTTT MOQGAD      TELAPSE      180.62 TCPU      178.99
 TTTTTTTTTTTTTTTTTTTTTTTTTTTTTT SHELLXN     TELAPSE      245.62 TCPU      243.91
 TTTTTTTTTTTTTTTTTTTTTTTTTTTTTT MONMO3      TELAPSE      268.87 TCPU      267.14
 NUMERICALLY INTEGRATED DENSITY     66.0000469813     66.0000469942
 TTTTTTTTTTTTTTTTTTTTTTTTTTTTTT NUMDFT      TELAPSE      270.25 TCPU      268.53
 CYC   2 ETOT(AU) -9.203232318775E+02 DETOT -1.05E-02 tst  7.72E-05 PX  2.84E-02
 CYCLE  2 WAVE FUNCTION SAVED IN FORTRAN UNIT 79
 TTTTTTTTTTTTTTTTTTTTTTTTTTTTTT DIIS        TELAPSE      270.50 TCPU      268.76
 DIIS TEST: 0.86762E-01 AT SCF   CYCLE   2 - DIIS ACTIVE - HISTORY:     2 CYCLES
 TTTTTTTTTTTTTTTTTTTTTTTTTTTTTT FDIK        TELAPSE      271.07 TCPU      269.34
 SPIN LOCKING: NO ENERGY GAP COMPUTED
 TTTTTTTTTTTTTTTTTTTTTTTTTTTTTT PDIG        TELAPSE      271.32 TCPU      269.59
 CHARGE NORMALIZATION FACTOR   1.00000000
 TOTAL ATOMIC CHARGES:
   0.1713899   0.1713899   0.1713899   0.1713899  18.0777666  18.0772341
  18.0772341  18.0777675   7.3755584   7.3755584   7.3755510   7.3755510
   7.3755584   7.3755510   7.3755584   7.3755510
 SUMMED SPIN DENSITY           0.00000000
 TOTAL ATOMIC SPINS  :
  -0.0000262  -0.0000262  -0.0000262  -0.0000262   0.4730635  -0.4730195
  -0.4730195   0.4730999   0.0000052   0.0000052  -0.0000101  -0.0000101
   0.0000052  -0.0000101   0.0000052  -0.0000101
 TTTTTTTTTTTTTTTTTTTTTTTTTTTTTT MOQGAD      TELAPSE      271.36 TCPU      269.62
 TTTTTTTTTTTTTTTTTTTTTTTTTTTTTT SHELLXN     TELAPSE      336.29 TCPU      334.57
 TTTTTTTTTTTTTTTTTTTTTTTTTTTTTT MONMO3      TELAPSE      359.63 TCPU      357.91
 NUMERICALLY INTEGRATED DENSITY     66.0000321270     66.0000321436
 TTTTTTTTTTTTTTTTTTTTTTTTTTTTTT NUMDFT      TELAPSE      361.03 TCPU      359.30
 CYC   3 ETOT(AU) -9.203601566051E+02 DETOT -3.69E-02 tst  4.69E-03 PX  1.82E-01
 CYCLE  3 WAVE FUNCTION SAVED IN FORTRAN UNIT 79
 TTTTTTTTTTTTTTTTTTTTTTTTTTTTTT DIIS        TELAPSE      361.28 TCPU      359.53
 DIIS TEST: 0.77400E-01 AT SCF   CYCLE   3 - DIIS ACTIVE - HISTORY:     3 CYCLES
 TTTTTTTTTTTTTTTTTTTTTTTTTTTTTT FDIK        TELAPSE      361.94 TCPU      360.20
 SPIN LOCKING: NO ENERGY GAP COMPUTED
 TTTTTTTTTTTTTTTTTTTTTTTTTTTTTT PDIG        TELAPSE      362.21 TCPU      360.47
 CHARGE NORMALIZATION FACTOR   1.00000000
 TOTAL ATOMIC CHARGES:
   0.1698473   0.1698473   0.1698473   0.1698473  18.0402263  18.0406869
  18.0406869  18.0402273   7.3948497   7.3948497   7.3948461   7.3948461
   7.3948497   7.3948461   7.3948497   7.3948461
 SUMMED SPIN DENSITY           0.00000000
 TOTAL ATOMIC SPINS  :
   0.0000006   0.0000006   0.0000006   0.0000006   0.5366275  -0.5364658
  -0.5364658   0.5366206  -0.0000368  -0.0000368  -0.0000430  -0.0000430
  -0.0000368  -0.0000430  -0.0000368  -0.0000430
 TTTTTTTTTTTTTTTTTTTTTTTTTTTTTT MOQGAD      TELAPSE      362.24 TCPU      360.50
 TTTTTTTTTTTTTTTTTTTTTTTTTTTTTT SHELLXN     TELAPSE      427.15 TCPU      425.42
 TTTTTTTTTTTTTTTTTTTTTTTTTTTTTT MONMO3      TELAPSE      450.49 TCPU      448.76
 NUMERICALLY INTEGRATED DENSITY     66.0000320005     66.0000320142
 TTTTTTTTTTTTTTTTTTTTTTTTTTTTTT NUMDFT      TELAPSE      451.88 TCPU      450.14
 CYC   4 ETOT(AU) -9.203731807956E+02 DETOT -1.30E-02 tst  1.53E-03 PX  7.68E-02
 CYCLE  4 WAVE FUNCTION SAVED IN FORTRAN UNIT 79
 TTTTTTTTTTTTTTTTTTTTTTTTTTTTTT DIIS        TELAPSE      452.11 TCPU      450.35
 DIIS TEST: 0.57715E-02 AT SCF   CYCLE   4 - DIIS ACTIVE - HISTORY:     4 CYCLES
 TTTTTTTTTTTTTTTTTTTTTTTTTTTTTT FDIK        TELAPSE      452.67 TCPU      450.91
 SPIN LOCKING: NO ENERGY GAP COMPUTED
 TTTTTTTTTTTTTTTTTTTTTTTTTTTTTT PDIG        TELAPSE      452.93 TCPU      451.17
 CHARGE NORMALIZATION FACTOR   1.00000000
 TOTAL ATOMIC CHARGES:
   0.1712112   0.1712112   0.1712112   0.1712112  18.0379081  18.0364780
  18.0364780  18.0379221   7.3957945   7.3957945   7.3957978   7.3957978
   7.3957945   7.3957978   7.3957945   7.3957978
 SUMMED SPIN DENSITY           0.00000000
 TOTAL ATOMIC SPINS  :
   0.0000030   0.0000030   0.0000030   0.0000030   0.5558956  -0.5564257
  -0.5564257   0.5558872   0.0001333   0.0001333   0.0001308   0.0001308
   0.0001333   0.0001308   0.0001333   0.0001308
 TTTTTTTTTTTTTTTTTTTTTTTTTTTTTT MOQGAD      TELAPSE      452.96 TCPU      451.20
 TTTTTTTTTTTTTTTTTTTTTTTTTTTTTT SHELLXN     TELAPSE      517.87 TCPU      516.12
 TTTTTTTTTTTTTTTTTTTTTTTTTTTTTT MONMO3      TELAPSE      541.26 TCPU      539.51
 NUMERICALLY INTEGRATED DENSITY     66.0000317894     66.0000318084
 TTTTTTTTTTTTTTTTTTTTTTTTTTTTTT NUMDFT      TELAPSE      542.66 TCPU      540.91
 CYC   5 ETOT(AU) -9.203745440919E+02 DETOT -1.36E-03 tst  1.79E-04 PX  2.65E-02
 CYCLE  5 WAVE FUNCTION SAVED IN FORTRAN UNIT 79
 TTTTTTTTTTTTTTTTTTTTTTTTTTTTTT DIIS        TELAPSE      542.89 TCPU      541.11
 DIIS TEST: 0.48667E-03 AT SCF   CYCLE   5 - DIIS ACTIVE - HISTORY:     5 CYCLES
 TTTTTTTTTTTTTTTTTTTTTTTTTTTTTT FDIK        TELAPSE      543.47 TCPU      541.69
 SPIN LOCKING: NO ENERGY GAP COMPUTED
 TTTTTTTTTTTTTTTTTTTTTTTTTTTTTT PDIG        TELAPSE      543.73 TCPU      541.95
 CHARGE NORMALIZATION FACTOR   1.00000000
 TOTAL ATOMIC CHARGES:
   0.1704543   0.1704543   0.1704543   0.1704543  18.0334189  18.0385375
  18.0385375  18.0334203   7.3967845   7.3967845   7.3967827   7.3967827
   7.3967845   7.3967827   7.3967845   7.3967827
 SUMMED SPIN DENSITY           0.00000000
 TOTAL ATOMIC SPINS  :
  -0.0000099  -0.0000099  -0.0000099  -0.0000099   0.5663642  -0.5644362
  -0.5644362   0.5663631  -0.0004771  -0.0004771  -0.0004767  -0.0004767
  -0.0004771  -0.0004767  -0.0004771  -0.0004767
 TTTTTTTTTTTTTTTTTTTTTTTTTTTTTT MOQGAD      TELAPSE      543.76 TCPU      541.98
 TTTTTTTTTTTTTTTTTTTTTTTTTTTTTT SHELLXN     TELAPSE      608.68 TCPU      606.90
 TTTTTTTTTTTTTTTTTTTTTTTTTTTTTT MONMO3      TELAPSE      632.03 TCPU      630.26
 NUMERICALLY INTEGRATED DENSITY     66.0000322360     66.0000322226
 TTTTTTTTTTTTTTTTTTTTTTTTTTTTTT NUMDFT      TELAPSE      633.42 TCPU      631.65
 CYC   6 ETOT(AU) -9.203746472075E+02 DETOT -1.03E-04 tst  4.30E-05 PX  1.15E-02
 CYCLE  6 WAVE FUNCTION SAVED IN FORTRAN UNIT 79
 TTTTTTTTTTTTTTTTTTTTTTTTTTTTTT DIIS        TELAPSE      633.66 TCPU      631.87
 DIIS TEST: 0.40807E-03 AT SCF   CYCLE   6 - DIIS ACTIVE - HISTORY:     6 CYCLES
 TTTTTTTTTTTTTTTTTTTTTTTTTTTTTT FDIK        TELAPSE      634.22 TCPU      632.43
 SPIN LOCKING: NO ENERGY GAP COMPUTED
 TTTTTTTTTTTTTTTTTTTTTTTTTTTTTT PDIG        TELAPSE      634.48 TCPU      632.68
 CHARGE NORMALIZATION FACTOR   1.00000000
 TOTAL ATOMIC CHARGES:
   0.1707791   0.1707791   0.1707791   0.1707791  18.0386394  18.0349686
  18.0349686  18.0386385   7.3962083   7.3962083   7.3962089   7.3962089
   7.3962083   7.3962089   7.3962083   7.3962089
 SUMMED SPIN DENSITY           0.00000000
 TOTAL ATOMIC SPINS  :
   0.0000066   0.0000066   0.0000066   0.0000066   0.5672498  -0.5686189
  -0.5686189   0.5672518   0.0003386   0.0003386   0.0003389   0.0003389
   0.0003386   0.0003389   0.0003386   0.0003389
 TTTTTTTTTTTTTTTTTTTTTTTTTTTTTT MOQGAD      TELAPSE      634.51 TCPU      632.72
 TTTTTTTTTTTTTTTTTTTTTTTTTTTTTT SHELLXN     TELAPSE      699.43 TCPU      697.63
 TTTTTTTTTTTTTTTTTTTTTTTTTTTTTT MONMO3      TELAPSE      722.98 TCPU      721.19
 NUMERICALLY INTEGRATED DENSITY     66.0000321765     66.0000322061
 TTTTTTTTTTTTTTTTTTTTTTTTTTTTTT NUMDFT      TELAPSE      724.38 TCPU      722.58
 CYC   7 ETOT(AU) -9.203746980361E+02 DETOT -5.08E-05 tst  7.62E-06 PX  3.92E-03
 CYCLE  7 WAVE FUNCTION SAVED IN FORTRAN UNIT 79
 TTTTTTTTTTTTTTTTTTTTTTTTTTTTTT DIIS        TELAPSE      724.63 TCPU      722.80
 DIIS TEST: 0.10906E-03 AT SCF   CYCLE   7 - DIIS ACTIVE - HISTORY:     7 CYCLES
 TTTTTTTTTTTTTTTTTTTTTTTTTTTTTT FDIK        TELAPSE      725.20 TCPU      723.38
 SPIN LOCKING: NO ENERGY GAP COMPUTED
 TTTTTTTTTTTTTTTTTTTTTTTTTTTTTT PDIG        TELAPSE      725.46 TCPU      723.63
 CHARGE NORMALIZATION FACTOR   1.00000000
 TOTAL ATOMIC CHARGES:
   0.1709158   0.1709158   0.1709158   0.1709158  18.0366334  18.0376068
  18.0376068  18.0366350   7.3959819   7.3959819   7.3959818   7.3959818
   7.3959819   7.3959818   7.3959819   7.3959818
 SUMMED SPIN DENSITY           0.00000000
 TOTAL ATOMIC SPINS  :
  -0.0000015  -0.0000015  -0.0000015  -0.0000015   0.5687316  -0.5683699
  -0.5683699   0.5687309  -0.0000897  -0.0000897  -0.0000895  -0.0000895
  -0.0000897  -0.0000895  -0.0000897  -0.0000895
 TTTTTTTTTTTTTTTTTTTTTTTTTTTTTT MOQGAD      TELAPSE      725.49 TCPU      723.66
 TTTTTTTTTTTTTTTTTTTTTTTTTTTTTT SHELLXN     TELAPSE      790.43 TCPU      788.60
 TTTTTTTTTTTTTTTTTTTTTTTTTTTTTT MONMO3      TELAPSE      813.79 TCPU      811.96
 NUMERICALLY INTEGRATED DENSITY     66.0000321628     66.0000321695
 TTTTTTTTTTTTTTTTTTTTTTTTTTTTTT NUMDFT      TELAPSE      815.18 TCPU      813.35
 CYC   8 ETOT(AU) -9.203747098426E+02 DETOT -1.18E-05 tst  1.01E-06 PX  1.66E-03
 CYCLE  8 WAVE FUNCTION SAVED IN FORTRAN UNIT 79
 TTTTTTTTTTTTTTTTTTTTTTTTTTTTTT DIIS        TELAPSE      815.43 TCPU      813.58
 DIIS TEST: 0.11243E-04 AT SCF   CYCLE   8 - DIIS ACTIVE - HISTORY:     8 CYCLES
 TTTTTTTTTTTTTTTTTTTTTTTTTTTTTT FDIK        TELAPSE      816.02 TCPU      814.17
 SPIN LOCKING: NO ENERGY GAP COMPUTED
 TTTTTTTTTTTTTTTTTTTTTTTTTTTTTT PDIG        TELAPSE      816.27 TCPU      814.42
 CHARGE NORMALIZATION FACTOR   1.00000000
 TOTAL ATOMIC CHARGES:
   0.1708650   0.1708650   0.1708650   0.1708650  18.0370118  18.0370068
  18.0370068  18.0370144   7.3960626   7.3960626   7.3960624   7.3960624
   7.3960626   7.3960624   7.3960626   7.3960624
 SUMMED SPIN DENSITY           0.00000000
 TOTAL ATOMIC SPINS  :
  -0.0000001  -0.0000001  -0.0000001  -0.0000001   0.5690857  -0.5690872
  -0.5690872   0.5690851   0.0000004   0.0000004   0.0000006   0.0000006
   0.0000004   0.0000006   0.0000004   0.0000006
 TTTTTTTTTTTTTTTTTTTTTTTTTTTTTT MOQGAD      TELAPSE      816.30 TCPU      814.45
 TTTTTTTTTTTTTTTTTTTTTTTTTTTTTT SHELLXN     TELAPSE      881.21 TCPU      879.37
 TTTTTTTTTTTTTTTTTTTTTTTTTTTTTT MONMO3      TELAPSE      904.56 TCPU      902.72
 NUMERICALLY INTEGRATED DENSITY     66.0000321915     66.0000322030
 TTTTTTTTTTTTTTTTTTTTTTTTTTTTTT NUMDFT      TELAPSE      905.95 TCPU      904.11
 CYC   9 ETOT(AU) -9.203747114851E+02 DETOT -1.64E-06 tst  1.56E-07 PX  6.14E-04
 CYCLE  9 WAVE FUNCTION SAVED IN FORTRAN UNIT 79
 TTTTTTTTTTTTTTTTTTTTTTTTTTTTTT DIIS        TELAPSE      906.19 TCPU      904.33
 DIIS TEST: 0.59863E-07 AT SCF   CYCLE   9 - DIIS ACTIVE - HISTORY:     9 CYCLES
 TTTTTTTTTTTTTTTTTTTTTTTTTTTTTT FDIK        TELAPSE      906.79 TCPU      904.92
 SPIN LOCKING: NO ENERGY GAP COMPUTED
 TTTTTTTTTTTTTTTTTTTTTTTTTTTTTT PDIG        TELAPSE      907.05 TCPU      905.18
 CHARGE NORMALIZATION FACTOR   1.00000000
 TOTAL ATOMIC CHARGES:
   0.1708621   0.1708621   0.1708621   0.1708621  18.0370011  18.0370019
  18.0370019  18.0369971   7.3960686   7.3960686   7.3960688   7.3960688
   7.3960686   7.3960688   7.3960686   7.3960688
 SUMMED SPIN DENSITY           0.00000000
 TOTAL ATOMIC SPINS  :
  -0.0000000  -0.0000000  -0.0000000  -0.0000000   0.5691457  -0.5691470
  -0.5691470   0.5691486   0.0000002   0.0000002  -0.0000002  -0.0000002
   0.0000002  -0.0000002   0.0000002  -0.0000002
 TTTTTTTTTTTTTTTTTTTTTTTTTTTTTT MOQGAD      TELAPSE      907.08 TCPU      905.21
 TTTTTTTTTTTTTTTTTTTTTTTTTTTTTT SHELLXN     TELAPSE      971.99 TCPU      970.13
 TTTTTTTTTTTTTTTTTTTTTTTTTTTTTT MONMO3      TELAPSE      995.36 TCPU      993.51
 NUMERICALLY INTEGRATED DENSITY     66.0000321921     66.0000322036
 TTTTTTTTTTTTTTTTTTTTTTTTTTTTTT NUMDFT      TELAPSE      996.75 TCPU      994.89
 CYC  10 ETOT(AU) -9.203747115059E+02 DETOT -2.08E-08 tst  2.38E-09 PX  1.16E-04
 CYCLE 10 WAVE FUNCTION SAVED IN FORTRAN UNIT 79
 TTTTTTTTTTTTTTTTTTTTTTTTTTTTTT DIIS        TELAPSE      996.98 TCPU      995.11
 DIIS TEST: 0.44738E-08 AT SCF   CYCLE  10 - DIIS ACTIVE - HISTORY:    10 CYCLES
 TTTTTTTTTTTTTTTTTTTTTTTTTTTTTT FDIK        TELAPSE      997.60 TCPU      995.73
 SPIN LOCKING: NO ENERGY GAP COMPUTED
 TTTTTTTTTTTTTTTTTTTTTTTTTTTTTT PDIG        TELAPSE      997.86 TCPU      995.99
 CHARGE NORMALIZATION FACTOR   1.00000000
 TOTAL ATOMIC CHARGES:
   0.1708622   0.1708622   0.1708622   0.1708622  18.0369928  18.0369991
  18.0369991  18.0370137   7.3960695   7.3960695   7.3960672   7.3960672
   7.3960695   7.3960672   7.3960695   7.3960672
 SUMMED SPIN DENSITY           0.00000000
 TOTAL ATOMIC SPINS  :
   0.0000000   0.0000000   0.0000000   0.0000000   0.5691519  -0.5691476
  -0.5691476   0.5691429  -0.0000008  -0.0000008   0.0000009   0.0000009
  -0.0000008   0.0000009  -0.0000008   0.0000009
 TTTTTTTTTTTTTTTTTTTTTTTTTTTTTT MOQGAD      TELAPSE      997.89 TCPU      996.02
 TTTTTTTTTTTTTTTTTTTTTTTTTTTTTT SHELLXN     TELAPSE     1062.82 TCPU     1060.96
 TTTTTTTTTTTTTTTTTTTTTTTTTTTTTT MONMO3      TELAPSE     1086.24 TCPU     1084.38
 NUMERICALLY INTEGRATED DENSITY     66.0000321914     66.0000322029
 TTTTTTTTTTTTTTTTTTTTTTTTTTTTTT NUMDFT      TELAPSE     1087.63 TCPU     1085.77
 CYC  11 ETOT(AU) -9.203747115066E+02 DETOT -7.29E-10 tst  2.73E-10 PX  3.83E-05
 CYCLE 11 WAVE FUNCTION SAVED IN FORTRAN UNIT 79
 TTTTTTTTTTTTTTTTTTTTTTTTTTTTTT DIIS        TELAPSE     1087.87 TCPU     1085.98
 DIIS TEST: 0.19337E-08 AT SCF   CYCLE  11 - DIIS ACTIVE - HISTORY:    11 CYCLES
 TTTTTTTTTTTTTTTTTTTTTTTTTTTTTT FDIK        TELAPSE     1088.40 TCPU     1086.51
 SPIN LOCKING: NO ENERGY GAP COMPUTED
 TTTTTTTTTTTTTTTTTTTTTTTTTTTTTT PDIG        TELAPSE     1088.66 TCPU     1086.77
 CHARGE NORMALIZATION FACTOR   1.00000000
 TOTAL ATOMIC CHARGES:
   0.1708623   0.1708623   0.1708623   0.1708623  18.0370156  18.0370013
  18.0370013  18.0369871   7.3960666   7.3960666   7.3960698   7.3960698
   7.3960666   7.3960698   7.3960666   7.3960698
 SUMMED SPIN DENSITY           0.00000000
 TOTAL ATOMIC SPINS  :
   0.0000000   0.0000000   0.0000000   0.0000000   0.5691389  -0.5691459
  -0.5691459   0.5691529   0.0000013   0.0000013  -0.0000013  -0.0000013
   0.0000013  -0.0000013   0.0000013  -0.0000013
 TTTTTTTTTTTTTTTTTTTTTTTTTTTTTT MOQGAD      TELAPSE     1088.69 TCPU     1086.80
 TTTTTTTTTTTTTTTTTTTTTTTTTTTTTT SHELLXN     TELAPSE     1153.60 TCPU     1151.72
 TTTTTTTTTTTTTTTTTTTTTTTTTTTTTT MONMO3      TELAPSE     1176.95 TCPU     1175.07
 NUMERICALLY INTEGRATED DENSITY     66.0000321913     66.0000322028
 TTTTTTTTTTTTTTTTTTTTTTTTTTTTTT NUMDFT      TELAPSE     1178.33 TCPU     1176.45
 CYC  12 ETOT(AU) -9.203747115061E+02 DETOT  5.28E-10 tst  7.82E-11 PX  1.51E-05
 CYCLE 12 WAVE FUNCTION SAVED IN FORTRAN UNIT 79
 TTTTTTTTTTTTTTTTTTTTTTTTTTTTTT DIIS        TELAPSE     1178.57 TCPU     1176.64
 DIIS TEST: 0.34705E-08 AT SCF   CYCLE  12 - DIIS ACTIVE - HISTORY:    12 CYCLES
 TTTTTTTTTTTTTTTTTTTTTTTTTTTTTT FDIK        TELAPSE     1179.12 TCPU     1177.17
 SPIN LOCKING: NO ENERGY GAP COMPUTED
 TTTTTTTTTTTTTTTTTTTTTTTTTTTTTT PDIG        TELAPSE     1179.37 TCPU     1177.43
 CHARGE NORMALIZATION FACTOR   1.00000000
 TOTAL ATOMIC CHARGES:
   0.1708624   0.1708624   0.1708624   0.1708624  18.0369991  18.0370024
  18.0370024  18.0370024   7.3960685   7.3960685   7.3960676   7.3960676
   7.3960685   7.3960676   7.3960685   7.3960676
 SUMMED SPIN DENSITY           0.00000000
 TOTAL ATOMIC SPINS  :
   0.0000000   0.0000000   0.0000000   0.0000000   0.5691446  -0.5691441
  -0.5691441   0.5691438  -0.0000001  -0.0000001   0.0000001   0.0000001
  -0.0000001   0.0000001  -0.0000001   0.0000001
 TTTTTTTTTTTTTTTTTTTTTTTTTTTTTT MOQGAD      TELAPSE     1179.40 TCPU     1177.46
 TTTTTTTTTTTTTTTTTTTTTTTTTTTTTT SHELLXN     TELAPSE     1244.54 TCPU     1242.47
 TTTTTTTTTTTTTTTTTTTTTTTTTTTTTT MONMO3      TELAPSE     1267.66 TCPU     1265.57
 NUMERICALLY INTEGRATED DENSITY     66.0000321912     66.0000322027
 TTTTTTTTTTTTTTTTTTTTTTTTTTTTTT NUMDFT      TELAPSE     1269.04 TCPU     1266.95
 CYC  13 ETOT(AU) -9.203747115060E+02 DETOT  7.38E-11 tst  3.15E-11 PX  9.67E-06
 CYCLE 13 WAVE FUNCTION SAVED IN FORTRAN UNIT 79
 TTTTTTTTTTTTTTTTTTTTTTTTTTTTTT DIIS        TELAPSE     1269.28 TCPU     1267.18
 DIIS TEST: 0.80506E-10 AT SCF   CYCLE  13 - DIIS ACTIVE - HISTORY:    13 CYCLES
 TTTTTTTTTTTTTTTTTTTTTTTTTTTTTT FDIK        TELAPSE     1269.91 TCPU     1267.81
 SPIN LOCKING: NO ENERGY GAP COMPUTED
 TTTTTTTTTTTTTTTTTTTTTTTTTTTTTT PDIG        TELAPSE     1270.17 TCPU     1268.06
 CHARGE NORMALIZATION FACTOR   1.00000000
 TOTAL ATOMIC CHARGES:
   0.1708624   0.1708624   0.1708624   0.1708624  18.0370016  18.0370009
  18.0370009  18.0370028   7.3960680   7.3960680   7.3960681   7.3960681
   7.3960680   7.3960681   7.3960680   7.3960681
 SUMMED SPIN DENSITY           0.00000000
 TOTAL ATOMIC SPINS  :
   0.0000000   0.0000000   0.0000000   0.0000000   0.5691433  -0.5691434
  -0.5691434   0.5691434  -0.0000000  -0.0000000   0.0000000   0.0000000
  -0.0000000   0.0000000  -0.0000000   0.0000000
 TTTTTTTTTTTTTTTTTTTTTTTTTTTTTT MOQGAD      TELAPSE     1270.20 TCPU     1268.10
 TTTTTTTTTTTTTTTTTTTTTTTTTTTTTT SHELLXN     TELAPSE     1335.12 TCPU     1333.02
 +++ ENERGIES IN A.U. +++
 ::: EXT EL-POLE                                  -4.6770135327380E+03
 ::: EXT EL-SPHEROPOLE                             2.2821805199095E+01
 ::: BIELET ZONE E-E                               5.0939398126532E+03
 ::: TOTAL E-E                                     4.3974808511428E+02
 ::: TOTAL E-N + N-E                              -1.4613294905632E+03
 ::: TOTAL N-N                                    -4.1431339568884E+02
 ::: KINETIC ENERGY                                5.9604863283194E+02
 ::: PSEUDO TOTAL   ENERGY                        -8.3984616830579E+02
 ::: VIRIAL COEFFICIENT                            8.3021211910463E-01
 TTTTTTTTTTTTTTTTTTTTTTTTTTTTTT MONMO3      TELAPSE     1358.91 TCPU     1355.13
 NUMERICALLY INTEGRATED DENSITY     66.0000321912     66.0000322027
 TTTTTTTTTTTTTTTTTTTTTTTTTTTTTT NUMDFT      TELAPSE     1360.31 TCPU     1356.52
 CYC  14 ETOT(AU) -9.203747115059E+02 DETOT  7.44E-11 tst  4.19E-13 PX  9.67E-06

 == SCF ENDED - CONVERGENCE ON ENERGY      E(AU) -9.2037471150595E+02 CYCLES  14


 ENERGY EXPRESSION=HARTREE+FOCK EXCH*0.25000+(PBESOL     EXCH)*0.75000+PBESOL     CORR

 FINITE TEMPERATURE DFT CALCULATION 
 TEMPERATURE      (T)    1.000000000000E-13 HARTREE 
 ENERGY           (E)   -9.203747115059E+02
 FREE ENERGY      (F)   -9.203747115059E+02
 ELECTRON ENTROPY (S)    0.000000000000E+00
 (E(T)+F(T))/2    (E0)  -9.203747115059E+02


 TOTAL ENERGY(DFT)(AU)( 14) -9.2037471150595E+02 DE 7.4E-11 tester 4.2E-13
 TTTTTTTTTTTTTTTTTTTTTTTTTTTTTT EDFT        TELAPSE     1360.31 TCPU     1356.53
 EIGENVECTORS IN FORTRAN UNIT  8
 TTTTTTTTTTTTTTTTTTTTTTTTTTTTTT END         TELAPSE     1360.75 TCPU     1356.96
 EEEEEEEEEE TERMINATION  DATE 30 11 2017 TIME 14:34:43.6
NODE    0 CPU TIME =      1356.956
NODE    1 CPU TIME =      1358.056
NODE    2 CPU TIME =      1358.679
NODE    3 CPU TIME =      1356.377
NODE    4 CPU TIME =      1357.060
NODE    5 CPU TIME =      1357.743
NODE    6 CPU TIME =      1358.809
NODE    7 CPU TIME =      1358.149
NODE    8 CPU TIME =      1357.451
NODE    9 CPU TIME =      1358.883
NODE   10 CPU TIME =      1358.187
NODE   11 CPU TIME =      1356.482
NODE   12 CPU TIME =      1358.041
NODE   13 CPU TIME =      1356.461
NODE   14 CPU TIME =      1357.993
NODE   15 CPU TIME =      1355.427
    TOTAL CPU TIME =     21720.751
