--------------------------------------------------------------------------
WARNING: No preset parameters were found for the device that Open MPI
detected:

  Local host:            golub042
  Device name:           mlx4_0
  Device vendor ID:      0x02c9
  Device vendor part ID: 4099

Default device parameters will be used, which may result in lower
performance.  You can edit any of the files specified by the
btl_openib_device_param_files MCA parameter to set values for your
device.

NOTE: You can turn off this warning by setting the MCA parameter
      btl_openib_warn_no_device_params_found to 0.
--------------------------------------------------------------------------
 PROCESS            9  OF           16  WORKING
 PROCESS           15  OF           16  WORKING
 PROCESS            0  OF           16  WORKING
 PROCESS           10  OF           16  WORKING
 PROCESS            6  OF           16  WORKING
 PROCESS            3  OF           16  WORKING
 PROCESS            5  OF           16  WORKING
 PROCESS           13  OF           16  WORKING
 PROCESS           11  OF           16  WORKING
 PROCESS            4  OF           16  WORKING
 PROCESS            7  OF           16  WORKING
 PROCESS           12  OF           16  WORKING
 PROCESS           14  OF           16  WORKING
 PROCESS            8  OF           16  WORKING
 PROCESS            1  OF           16  WORKING
 PROCESS            2  OF           16  WORKING

         
 *******************************************************************************
 *                                                                             *
 *                               CRYSTAL17                                     *
 *                      public : 1.0.1 - Jun 21st, 2017                        *
 *                       HTTP://WWW.CRYSTAL.UNITO.IT                           *
 *                                                                             *
 *                              MAIN AUTHORS                                   *
 *                                                                             *
 *  R. DOVESI(1,11), V.R. SAUNDERS(2), C. ROETTI(1,11), R. ORLANDO(1,11),      *
 *  C.M. ZICOVICH-WILSON(1,3), F. PASCALE(4), B. CIVALLERI(1,11),              *
 *  K. DOLL(5), N.M. HARRISON(2,6), I.J. BUSH(7), Ph. D'ARCO(8),               *
 *  M. LLUNELL(9), M. CAUSA'(10), Y. NOEL(8), L. MASCHIO(1,11), A. ERBA(1,11)  *
 *  M. RE'RAT(14), S. CASASSA(1,11)                                            *
 *                                                                             *
 *        CONTRIBUTIONS TO THE CODE HAVE ALSO BEEN GIVEN BY                    *
 *                                                                             *
 *  M. FERRABONE(1,11), M. DE LA PIERRE(1,11), M. FERRERO(1,11),               *
 *  J. BAIMA(1,11), E. ALBANESE(1,11), M.F. PEINTINGER(12), R. BAST(13),       *
 *  B. KIRTMAN(15), V. LACIVITA(1,11), R. DEMICHELIS(1,16)                     *
 *  G. BRANDEBURG(17), S. SALUSTRO(1,11), G. SANSONE(1,11)                     *
 *  M.T. RUGGIERO(18)                                                          *
 *                                                                             *
 * (1) THEORETICAL CHEMISTRY GROUP - UNIVERSITA' DI TORINO - TORINO (ITALY)    *

 * (2) COMPUTATIONAL SCIENCE & ENGINEERING DEPARTMENT - STFC DARESBURY (UK)    *
 * (3) UNIVERSIDAD AUTONOMA DEL ESTADO DE MORELOS - CUERNAVACA (MEXICO)        *
 * (4) UNIVERSITE' DE LORRAINE - NANCY (FRANCE)                                *
 * (5) UNIVERSITAET STUTTGART- STUTTGART (GERMANY)                             *
 * (6) IMPERIAL COLLEGE - LONDON (UK)                                          *
 * (7) OXFORD E-RESEARCH CENTRE - OXFORD (UK)                                  *
 * (8) UPMC - SORBONNE UNIVERSITES - PARIS (FRANCE)                            *
 * (9) UNIVERSIDAD DE BARCELONA - BARCELONA (SPAIN)                            *
 *(10) UNIVERSITA' DI NAPOLI "FEDERICO II" - NAPOLI (ITALY)                    *
 *(11) NIS - NANOSTRUCTURED INTERFACES AND SURFACES - TORINO (ITALY)           *
 *(12) MPI FUER CHEMISCHE ENERGIEKONVERSION - MUELHEIM AN DER RUHR (GERMANY)   *
 *(13) UNIVERSITY OF TROMSO - TROMSO (NORWAY)                                  *
 *(14) UNIVERSITE' DE PAU ET DES PAYS DE L'ADOUR - PAU (FRANCE)                *
 *(15) UNIVERSITY OF CALIFORNIA SANTA BARBARA - SANTA BARBARA (USA)            *
 *(16) CURTIN UNIVERSITY - PERTH (AUSTRALIA)                                   *
 *(17) UNIVERSITY COLLEGE LONDON - LONDON (UK)                                 *
 *(18) CAMBRIDGE UNIVERSITY - CAMBRIDGE (UK)                                   *
 *                                                                             *
 *******************************************************************************
 EEEEEEEEEE STARTING  DATE 24 03 2018 TIME 20:33:34.0
 Generated by CrystalWriter                                                      

 CRYSTAL CALCULATION
 (INPUT ACCORDING TO THE INTERNATIONAL TABLES FOR X-RAY CRYSTALLOGRAPHY)
 CRYSTAL FAMILY                       :  TETRAGONAL  
 CRYSTAL CLASS  (GROTH - 1921)        :  DITETRAGONAL DIPYRAMIDAL             

 SPACE GROUP (CENTROSYMMETRIC)        :  P 4/M M M       

 LATTICE PARAMETERS  (ANGSTROMS AND DEGREES) - CONVENTIONAL CELL
        A           B           C        ALPHA        BETA       GAMMA
     3.92785     3.92785     3.43380    90.00000    90.00000    90.00000


 NUMBER OF IRREDUCIBLE ATOMS IN THE CONVENTIONAL CELL:    4

 INPUT COORDINATES

 ATOM AT. N.              COORDINATES
   1 229     0.000000000000E+00  0.000000000000E+00  0.000000000000E+00
   2 208     0.000000000000E+00  5.000000000000E-01  0.000000000000E+00
   3 208     5.000000000000E-01  0.000000000000E+00  0.000000000000E+00
   4 238     5.000000000000E-01  5.000000000000E-01  5.000000000000E-01

 *******************************************************************************

 << INFORMATION >>: FROM NOW ON, ALL COORDINATES REFER TO THE PRIMITIVE CELL

 *******************************************************************************

 LATTICE PARAMETERS  (ANGSTROMS AND DEGREES) - PRIMITIVE CELL
       A          B          C        ALPHA      BETA     GAMMA        VOLUME
    3.92785    3.92785    3.43380    90.00000  90.00000  90.00000     52.976686

 INPUT LIST - ATOM N.   3 NOT IRREDUCIBLE

 COORDINATES OF THE EQUIVALENT ATOMS (FRACTIONAL UNITS)

 N. ATOM EQUIV AT. N.          X                  Y                  Z

   1   1   1  229 CU    0.00000000000E+00  0.00000000000E+00  0.00000000000E+00

   2   2   1  208 O     0.00000000000E+00 -5.00000000000E-01  0.00000000000E+00
   3   2   2  208 O     5.00000000000E-01  0.00000000000E+00  0.00000000000E+00


 NUMBER OF SYMMETRY OPERATORS         :   16
 *******************************************************************************
 * GEOMETRY EDITING - INPUT COORDINATES ARE GIVEN IN ANGSTROM         
 *******************************************************************************

 GEOMETRY NOW FULLY CONSISTENT WITH THE GROUP

 NO SYMMOPS WITH FINITE TRANSLATIONAL COMPONENT

 *******************************************************************************
 * SUPERCELL OPTION
 *******************************************************************************

 INFORMATION **** GEXPAD **** SUPERCELL VOLUME NEGATIVE ? - SIGN OF EXPANSION MATRIX REVERSED

        EXPANSION MATRIX OF PRIMITIVE CELL
 E1    -2.000    -2.000     0.000
 E2     2.000    -2.000     0.000
 E3     0.000     0.000     1.000

 NUMBER OF ATOMS PER SUPERCELL    32

        DIRECT LATTICE VECTORS COMPONENTS (ANGSTROM)
 B1    -7.856    -7.856     0.000
 B2     7.856    -7.856     0.000
 B3     0.000     0.000     3.434

 LATTICE PARAMETERS  (ANGSTROM AND DEGREES)
       A          B          C         ALPHA     BETA     GAMMA        VOLUME
   11.10964   11.10964    3.43380    90.00000  90.00000  90.00000    423.813486


 **** ATOMS BELONGING TO THE SUPERCELL
 LABEL AT.NO.      COORDINATES (ANGSTROM AND FRACTIONAL)
     1   229     7.8557     0.0000     0.0000    -0.5000     0.5000     0.0000
     2   229     0.0000    -3.9278     0.0000     0.2500     0.2500     0.0000
     3   229     0.0000     0.0000     0.0000     0.0000     0.0000     0.0000
     4   229     0.0000     3.9278     0.0000    -0.2500    -0.2500     0.0000
     5   229    -3.9279     0.0000     0.0000     0.2500    -0.2500     0.0000
     6   229     3.9278    -3.9278     0.0000     0.0000     0.5000     0.0000
     7   229     3.9278     0.0000     0.0000    -0.2500     0.2500     0.0000
     8   229     3.9278     3.9278     0.0000    -0.5000     0.0000     0.0000
     9   208    -0.0000     5.8918     0.0000    -0.3750    -0.3750     0.0000
    10   208    -0.0000    -5.8918     0.0000     0.3750     0.3750     0.0000
    11   208     0.0000    -1.9639     0.0000     0.1250     0.1250     0.0000
    12   208     0.0000     1.9639     0.0000    -0.1250    -0.1250     0.0000
    13   208    -3.9279    -1.9639     0.0000     0.3750    -0.1250     0.0000
    14   208    -3.9279     1.9639     0.0000     0.1250    -0.3750     0.0000
    15   208     3.9278    -1.9639     0.0000    -0.1250     0.3750     0.0000
    16   208     3.9278     1.9639     0.0000    -0.3750     0.1250     0.0000
    17   208     5.8918     0.0000     0.0000    -0.3750     0.3750     0.0000
    18   208    -1.9639    -3.9278     0.0000     0.3750     0.1250     0.0000
    19   208    -1.9639     0.0000     0.0000     0.1250    -0.1250     0.0000
    20   208    -1.9639     3.9278     0.0000    -0.1250    -0.3750     0.0000
    21   208    -5.8918     0.0000     0.0000     0.3750    -0.3750     0.0000
    22   208     1.9639    -3.9278     0.0000     0.1250     0.3750     0.0000
    23   208     1.9639     0.0000     0.0000    -0.1250     0.1250     0.0000
    24   208     1.9639     3.9278     0.0000    -0.3750    -0.1250     0.0000
    25   238     5.8918    -1.9639     1.7169    -0.2500     0.5000     0.5000
    26   238     5.8918     1.9639     1.7169    -0.5000     0.2500     0.5000
    27   238    -1.9639    -1.9639     1.7169     0.2500     0.0000     0.5000
    28   238    -1.9639     1.9639     1.7169     0.0000    -0.2500     0.5000
    29   238     1.9639     5.8918     1.7169    -0.5000    -0.2500     0.5000
    30   238     1.9639    -5.8918     1.7169     0.2500     0.5000     0.5000
    31   238     1.9639    -1.9639     1.7169     0.0000     0.2500     0.5000
    32   238     1.9639     1.9639     1.7169    -0.2500     0.0000     0.5000

 **************************** SUPERCELL GENERATED ****************************
 *********************************************************************
                        ATOMIC SITE SYMMETRIES
 *********************************************************************


 ATOM   1 ATOMIC NUMBER 229 - NUMBER OF SYMMOPS WHICH DO NOT MOVE THE ATOM  16
 SEQUENCE NUMBERS OF THE SYMMOPS
    1    2    3    4    5    6    7    8    9   10   11   12   13   14   15
   16
 NO EQUIVALENT ATOMS


 ATOM   2 ATOMIC NUMBER 229 - NUMBER OF SYMMOPS WHICH DO NOT MOVE THE ATOM   4
 SEQUENCE NUMBERS OF THE SYMMOPS
    1    4   10   11
 NUMBER OF ATOMS EQUIVALENT BY SYMMETRY    3
 SEQUENCE NUMBERS OF THESE ATOMS
    4    7    5
 SEQUENCE NUMBERS OF THE CORRESPONDING SYMMOPS
    2    5    6


 ATOM   3 ATOMIC NUMBER 229 - NUMBER OF SYMMOPS WHICH DO NOT MOVE THE ATOM  16
 SEQUENCE NUMBERS OF THE SYMMOPS
    1    2    3    4    5    6    7    8    9   10   11   12   13   14   15
   16
 NO EQUIVALENT ATOMS


 ATOM   4 ATOMIC NUMBER 229 - NUMBER OF SYMMOPS WHICH DO NOT MOVE THE ATOM   4
 SEQUENCE NUMBERS OF THE SYMMOPS
    1    4   10   11
 NUMBER OF ATOMS EQUIVALENT BY SYMMETRY    3
 SEQUENCE NUMBERS OF THESE ATOMS
    2    5    7
 SEQUENCE NUMBERS OF THE CORRESPONDING SYMMOPS
    2    5    6


 ATOM   5 ATOMIC NUMBER 229 - NUMBER OF SYMMOPS WHICH DO NOT MOVE THE ATOM   4
 SEQUENCE NUMBERS OF THE SYMMOPS
    1    3   10   12
 NUMBER OF ATOMS EQUIVALENT BY SYMMETRY    3
 SEQUENCE NUMBERS OF THESE ATOMS
    7    4    2
 SEQUENCE NUMBERS OF THE CORRESPONDING SYMMOPS
    2    5    6


 ATOM   6 ATOMIC NUMBER 229 - NUMBER OF SYMMOPS WHICH DO NOT MOVE THE ATOM   8
 SEQUENCE NUMBERS OF THE SYMMOPS
    1    2    5    6    9   10   13   14
 NUMBER OF ATOMS EQUIVALENT BY SYMMETRY    1
 SEQUENCE NUMBERS OF THESE ATOMS
    8
 SEQUENCE NUMBERS OF THE CORRESPONDING SYMMOPS
    3


 ATOM   7 ATOMIC NUMBER 229 - NUMBER OF SYMMOPS WHICH DO NOT MOVE THE ATOM   4
 SEQUENCE NUMBERS OF THE SYMMOPS
    1    3   10   12
 NUMBER OF ATOMS EQUIVALENT BY SYMMETRY    3
 SEQUENCE NUMBERS OF THESE ATOMS
    5    2    4
 SEQUENCE NUMBERS OF THE CORRESPONDING SYMMOPS
    2    5    6


 ATOM   8 ATOMIC NUMBER 229 - NUMBER OF SYMMOPS WHICH DO NOT MOVE THE ATOM   8
 SEQUENCE NUMBERS OF THE SYMMOPS
    1    2    5    6    9   10   13   14
 NUMBER OF ATOMS EQUIVALENT BY SYMMETRY    1
 SEQUENCE NUMBERS OF THESE ATOMS
    6
 SEQUENCE NUMBERS OF THE CORRESPONDING SYMMOPS
    3


 ATOM   9 ATOMIC NUMBER 208 - NUMBER OF SYMMOPS WHICH DO NOT MOVE THE ATOM   4
 SEQUENCE NUMBERS OF THE SYMMOPS
    1    4   10   11
 NUMBER OF ATOMS EQUIVALENT BY SYMMETRY    3
 SEQUENCE NUMBERS OF THESE ATOMS
   10   21   17
 SEQUENCE NUMBERS OF THE CORRESPONDING SYMMOPS
    2    5    6


 ATOM  10 ATOMIC NUMBER 208 - NUMBER OF SYMMOPS WHICH DO NOT MOVE THE ATOM   4
 SEQUENCE NUMBERS OF THE SYMMOPS
    1    4   10   11
 NUMBER OF ATOMS EQUIVALENT BY SYMMETRY    3
 SEQUENCE NUMBERS OF THESE ATOMS
    9   17   21
 SEQUENCE NUMBERS OF THE CORRESPONDING SYMMOPS
    2    5    6


 ATOM  11 ATOMIC NUMBER 208 - NUMBER OF SYMMOPS WHICH DO NOT MOVE THE ATOM   4
 SEQUENCE NUMBERS OF THE SYMMOPS
    1    4   10   11
 NUMBER OF ATOMS EQUIVALENT BY SYMMETRY    3
 SEQUENCE NUMBERS OF THESE ATOMS
   12   23   19
 SEQUENCE NUMBERS OF THE CORRESPONDING SYMMOPS
    2    5    6


 ATOM  12 ATOMIC NUMBER 208 - NUMBER OF SYMMOPS WHICH DO NOT MOVE THE ATOM   4
 SEQUENCE NUMBERS OF THE SYMMOPS
    1    4   10   11
 NUMBER OF ATOMS EQUIVALENT BY SYMMETRY    3
 SEQUENCE NUMBERS OF THESE ATOMS
   11   19   23
 SEQUENCE NUMBERS OF THE CORRESPONDING SYMMOPS
    2    5    6


 ATOM  13 ATOMIC NUMBER 208 - NUMBER OF SYMMOPS WHICH DO NOT MOVE THE ATOM   2
 SEQUENCE NUMBERS OF THE SYMMOPS
    1   10
 NUMBER OF ATOMS EQUIVALENT BY SYMMETRY    7
 SEQUENCE NUMBERS OF THESE ATOMS
   16   14   15   24   18   20   22
 SEQUENCE NUMBERS OF THE CORRESPONDING SYMMOPS
    2    3    4    5    6    7    8


 ATOM  14 ATOMIC NUMBER 208 - NUMBER OF SYMMOPS WHICH DO NOT MOVE THE ATOM   2
 SEQUENCE NUMBERS OF THE SYMMOPS
    1   10
 NUMBER OF ATOMS EQUIVALENT BY SYMMETRY    7
 SEQUENCE NUMBERS OF THESE ATOMS
   15   13   16   20   22   24   18
 SEQUENCE NUMBERS OF THE CORRESPONDING SYMMOPS
    2    3    4    5    6    7    8


 ATOM  15 ATOMIC NUMBER 208 - NUMBER OF SYMMOPS WHICH DO NOT MOVE THE ATOM   2
 SEQUENCE NUMBERS OF THE SYMMOPS
    1   10
 NUMBER OF ATOMS EQUIVALENT BY SYMMETRY    7
 SEQUENCE NUMBERS OF THESE ATOMS
   14   16   13   22   20   18   24
 SEQUENCE NUMBERS OF THE CORRESPONDING SYMMOPS
    2    3    4    5    6    7    8


 ATOM  16 ATOMIC NUMBER 208 - NUMBER OF SYMMOPS WHICH DO NOT MOVE THE ATOM   2
 SEQUENCE NUMBERS OF THE SYMMOPS
    1   10
 NUMBER OF ATOMS EQUIVALENT BY SYMMETRY    7
 SEQUENCE NUMBERS OF THESE ATOMS
   13   15   14   18   24   22   20
 SEQUENCE NUMBERS OF THE CORRESPONDING SYMMOPS
    2    3    4    5    6    7    8


 ATOM  17 ATOMIC NUMBER 208 - NUMBER OF SYMMOPS WHICH DO NOT MOVE THE ATOM   4
 SEQUENCE NUMBERS OF THE SYMMOPS
    1    3   10   12
 NUMBER OF ATOMS EQUIVALENT BY SYMMETRY    3
 SEQUENCE NUMBERS OF THESE ATOMS
   21   10    9
 SEQUENCE NUMBERS OF THE CORRESPONDING SYMMOPS
    2    5    6


 ATOM  18 ATOMIC NUMBER 208 - NUMBER OF SYMMOPS WHICH DO NOT MOVE THE ATOM   2
 SEQUENCE NUMBERS OF THE SYMMOPS
    1   10
 NUMBER OF ATOMS EQUIVALENT BY SYMMETRY    7
 SEQUENCE NUMBERS OF THESE ATOMS
   24   20   22   16   13   14   15
 SEQUENCE NUMBERS OF THE CORRESPONDING SYMMOPS
    2    3    4    5    6    7    8


 ATOM  19 ATOMIC NUMBER 208 - NUMBER OF SYMMOPS WHICH DO NOT MOVE THE ATOM   4
 SEQUENCE NUMBERS OF THE SYMMOPS
    1    3   10   12
 NUMBER OF ATOMS EQUIVALENT BY SYMMETRY    3
 SEQUENCE NUMBERS OF THESE ATOMS
   23   12   11
 SEQUENCE NUMBERS OF THE CORRESPONDING SYMMOPS
    2    5    6


 ATOM  20 ATOMIC NUMBER 208 - NUMBER OF SYMMOPS WHICH DO NOT MOVE THE ATOM   2
 SEQUENCE NUMBERS OF THE SYMMOPS
    1   10
 NUMBER OF ATOMS EQUIVALENT BY SYMMETRY    7
 SEQUENCE NUMBERS OF THESE ATOMS
   22   18   24   14   15   16   13
 SEQUENCE NUMBERS OF THE CORRESPONDING SYMMOPS
    2    3    4    5    6    7    8


 ATOM  21 ATOMIC NUMBER 208 - NUMBER OF SYMMOPS WHICH DO NOT MOVE THE ATOM   4
 SEQUENCE NUMBERS OF THE SYMMOPS
    1    3   10   12
 NUMBER OF ATOMS EQUIVALENT BY SYMMETRY    3
 SEQUENCE NUMBERS OF THESE ATOMS
   17    9   10
 SEQUENCE NUMBERS OF THE CORRESPONDING SYMMOPS
    2    5    6


 ATOM  22 ATOMIC NUMBER 208 - NUMBER OF SYMMOPS WHICH DO NOT MOVE THE ATOM   2
 SEQUENCE NUMBERS OF THE SYMMOPS
    1   10
 NUMBER OF ATOMS EQUIVALENT BY SYMMETRY    7
 SEQUENCE NUMBERS OF THESE ATOMS
   20   24   18   15   14   13   16
 SEQUENCE NUMBERS OF THE CORRESPONDING SYMMOPS
    2    3    4    5    6    7    8


 ATOM  23 ATOMIC NUMBER 208 - NUMBER OF SYMMOPS WHICH DO NOT MOVE THE ATOM   4
 SEQUENCE NUMBERS OF THE SYMMOPS
    1    3   10   12
 NUMBER OF ATOMS EQUIVALENT BY SYMMETRY    3
 SEQUENCE NUMBERS OF THESE ATOMS
   19   11   12
 SEQUENCE NUMBERS OF THE CORRESPONDING SYMMOPS
    2    5    6


 ATOM  24 ATOMIC NUMBER 208 - NUMBER OF SYMMOPS WHICH DO NOT MOVE THE ATOM   2
 SEQUENCE NUMBERS OF THE SYMMOPS
    1   10
 NUMBER OF ATOMS EQUIVALENT BY SYMMETRY    7
 SEQUENCE NUMBERS OF THESE ATOMS
   18   22   20   13   16   15   14
 SEQUENCE NUMBERS OF THE CORRESPONDING SYMMOPS
    2    3    4    5    6    7    8


 ATOM  25 ATOMIC NUMBER 238 - NUMBER OF SYMMOPS WHICH DO NOT MOVE THE ATOM   4
 SEQUENCE NUMBERS OF THE SYMMOPS
    1    6   10   13
 NUMBER OF ATOMS EQUIVALENT BY SYMMETRY    3
 SEQUENCE NUMBERS OF THESE ATOMS
   30   26   29
 SEQUENCE NUMBERS OF THE CORRESPONDING SYMMOPS
    2    3    4


 ATOM  26 ATOMIC NUMBER 238 - NUMBER OF SYMMOPS WHICH DO NOT MOVE THE ATOM   4
 SEQUENCE NUMBERS OF THE SYMMOPS
    1    5   10   14
 NUMBER OF ATOMS EQUIVALENT BY SYMMETRY    3
 SEQUENCE NUMBERS OF THESE ATOMS
   29   25   30
 SEQUENCE NUMBERS OF THE CORRESPONDING SYMMOPS
    2    3    4


 ATOM  27 ATOMIC NUMBER 238 - NUMBER OF SYMMOPS WHICH DO NOT MOVE THE ATOM   4
 SEQUENCE NUMBERS OF THE SYMMOPS
    1    6   10   13
 NUMBER OF ATOMS EQUIVALENT BY SYMMETRY    3
 SEQUENCE NUMBERS OF THESE ATOMS
   32   28   31
 SEQUENCE NUMBERS OF THE CORRESPONDING SYMMOPS
    2    3    4


 ATOM  28 ATOMIC NUMBER 238 - NUMBER OF SYMMOPS WHICH DO NOT MOVE THE ATOM   4
 SEQUENCE NUMBERS OF THE SYMMOPS
    1    5   10   14
 NUMBER OF ATOMS EQUIVALENT BY SYMMETRY    3
 SEQUENCE NUMBERS OF THESE ATOMS
   31   27   32
 SEQUENCE NUMBERS OF THE CORRESPONDING SYMMOPS
    2    3    4


 ATOM  29 ATOMIC NUMBER 238 - NUMBER OF SYMMOPS WHICH DO NOT MOVE THE ATOM   4
 SEQUENCE NUMBERS OF THE SYMMOPS
    1    5   10   14
 NUMBER OF ATOMS EQUIVALENT BY SYMMETRY    3
 SEQUENCE NUMBERS OF THESE ATOMS
   26   30   25
 SEQUENCE NUMBERS OF THE CORRESPONDING SYMMOPS
    2    3    4


 ATOM  30 ATOMIC NUMBER 238 - NUMBER OF SYMMOPS WHICH DO NOT MOVE THE ATOM   4
 SEQUENCE NUMBERS OF THE SYMMOPS
    1    6   10   13
 NUMBER OF ATOMS EQUIVALENT BY SYMMETRY    3
 SEQUENCE NUMBERS OF THESE ATOMS
   25   29   26
 SEQUENCE NUMBERS OF THE CORRESPONDING SYMMOPS
    2    3    4


 ATOM  31 ATOMIC NUMBER 238 - NUMBER OF SYMMOPS WHICH DO NOT MOVE THE ATOM   4
 SEQUENCE NUMBERS OF THE SYMMOPS
    1    5   10   14
 NUMBER OF ATOMS EQUIVALENT BY SYMMETRY    3
 SEQUENCE NUMBERS OF THESE ATOMS
   28   32   27
 SEQUENCE NUMBERS OF THE CORRESPONDING SYMMOPS
    2    3    4


 ATOM  32 ATOMIC NUMBER 238 - NUMBER OF SYMMOPS WHICH DO NOT MOVE THE ATOM   4
 SEQUENCE NUMBERS OF THE SYMMOPS
    1    6   10   13
 NUMBER OF ATOMS EQUIVALENT BY SYMMETRY    3
 SEQUENCE NUMBERS OF THESE ATOMS
   27   31   28
 SEQUENCE NUMBERS OF THE CORRESPONDING SYMMOPS
    2    3    4

 *****   16 SYMMOPS - TRANSLATORS IN ANGSTROM
 ***** MATRICES AND TRANSLATORS IN THE CARTESIAN REFERENCE FRAME

 ORDER   : ORDER OF THE OPERATOR

 TRANSLA : REAL TRANSLATION (WITHOUT ORIGIN SHIFT) IN CARTESIAN COORDINATES

 uvw/hkl : ORIENTATION OF THE OPERATOR IN CARTESIAN COORDINATES

 LOCATED : ORIGIN OF THE OPERATOR IN CARTESIAN COORDINATES

   NO.   1 INVERSE   1    ORDER   1        NO.   2 INVERSE   2    ORDER   2
    1.000   0.000   0.000     0.000        -1.000   0.000   0.000     0.000
    0.000   1.000   0.000     0.000         0.000  -1.000   0.000     0.000
    0.000   0.000   1.000     0.000         0.000   0.000   1.000     0.000
             OPERATION E(   1)                       OPERATION C(   2)
 DETERMINANT 1.; ROTATION(DEG)   0.      DETERMINANT 1.; ROTATION(DEG) 180.
 TRANSLA (  0.000    0.000    0.000)     TRANSLA (  0.000    0.000    0.000)
 uvw/hkl (  0.000    0.000    0.000)     uvw/hkl (  0.000    0.000    4.000)
 LOCATED (  0.000    0.000    0.000)     LOCATED (  0.000    0.000    0.000)

   NO.   3 INVERSE   3    ORDER   2        NO.   4 INVERSE   4    ORDER   2
    1.000   0.000   0.000     0.000        -1.000   0.000   0.000     0.000
    0.000  -1.000   0.000     0.000         0.000   1.000   0.000     0.000
    0.000   0.000  -1.000     0.000         0.000   0.000  -1.000     0.000
             OPERATION C(   2)                       OPERATION C(   2)
 DETERMINANT 1.; ROTATION(DEG) 180.      DETERMINANT 1.; ROTATION(DEG) 180.
 TRANSLA (  0.000    0.000    0.000)     TRANSLA (  0.000    0.000    0.000)
 uvw/hkl (  4.000    0.000    0.000)     uvw/hkl (  0.000   -4.000    0.000)
 LOCATED (  0.000    0.000    0.000)     LOCATED (  0.000    0.000    0.000)

   NO.   5 INVERSE   5    ORDER   2        NO.   6 INVERSE   6    ORDER   2
    0.000  -1.000   0.000     0.000         0.000   1.000   0.000     0.000
   -1.000   0.000   0.000     0.000         1.000   0.000   0.000     0.000
    0.000   0.000  -1.000     0.000         0.000   0.000  -1.000     0.000
             OPERATION C(   2)                       OPERATION C(   2)
 DETERMINANT 1.; ROTATION(DEG) 180.      DETERMINANT 1.; ROTATION(DEG) 180.
 TRANSLA (  0.000    0.000    0.000)     TRANSLA (  0.000    0.000    0.000)
 uvw/hkl (  2.000   -2.000    0.000)     uvw/hkl ( -2.000   -2.000    0.000)
 LOCATED (  0.000    0.000    0.000)     LOCATED (  0.000    0.000    0.000)

   NO.   7 INVERSE   8    ORDER   4        NO.   8 INVERSE   7    ORDER   4
    0.000   1.000   0.000     0.000         0.000  -1.000   0.000     0.000
   -1.000   0.000   0.000     0.000         1.000   0.000   0.000     0.000
    0.000   0.000   1.000     0.000         0.000   0.000   1.000     0.000
             OPERATION C(   4)                       OPERATION C(   4)
 DETERMINANT 1.; ROTATION(DEG)  90.      DETERMINANT 1.; ROTATION(DEG)  90.
 TRANSLA (  0.000    0.000    0.000)     TRANSLA (  0.000    0.000    0.000)
 uvw/hkl (  0.000    0.000    2.000)     uvw/hkl (  0.000    0.000    2.000)
 LOCATED (  0.000    0.000    0.000)     LOCATED (  0.000    0.000    0.000)

   NO.   9 INVERSE   9    ORDER   2        NO.  10 INVERSE  10    ORDER   2
   -1.000   0.000   0.000     0.000         1.000   0.000   0.000     0.000
    0.000  -1.000   0.000     0.000         0.000   1.000   0.000     0.000
    0.000   0.000  -1.000     0.000         0.000   0.000  -1.000     0.000
             OPERATION I(   2)                       OPERATION M(   2)
 DETERMINANT-1.; ROTATION(DEG) 180.      DETERMINANT-1.; ROTATION(DEG)   0.
 TRANSLA (  0.000    0.000    0.000)     TRANSLA (  0.000    0.000    0.000)
 uvw/hkl (  0.000    0.000    0.000)     uvw/hkl (  0.000    0.000   -2.000)
 LOCATED (  0.000    0.000    0.000)     LOCATED (  0.000    0.000    0.000)

   NO.  11 INVERSE  11    ORDER   2        NO.  12 INVERSE  12    ORDER   2
   -1.000   0.000   0.000     0.000         1.000   0.000   0.000     0.000
    0.000   1.000   0.000     0.000         0.000  -1.000   0.000     0.000
    0.000   0.000   1.000     0.000         0.000   0.000   1.000     0.000
             OPERATION M(   2)                       OPERATION M(   2)
 DETERMINANT-1.; ROTATION(DEG)   0.      DETERMINANT-1.; ROTATION(DEG)   0.
 TRANSLA (  0.000    0.000    0.000)     TRANSLA (  0.000    0.000    0.000)
 uvw/hkl (  2.000    0.000    0.000)     uvw/hkl (  0.000   -2.000    0.000)
 LOCATED (  0.000    0.000    0.000)     LOCATED (  0.000    0.000    0.000)

   NO.  13 INVERSE  13    ORDER   2        NO.  14 INVERSE  14    ORDER   2
    0.000   1.000   0.000     0.000         0.000  -1.000   0.000     0.000
    1.000   0.000   0.000     0.000        -1.000   0.000   0.000     0.000
    0.000   0.000   1.000     0.000         0.000   0.000   1.000     0.000
             OPERATION M(   2)                       OPERATION M(   2)
 DETERMINANT-1.; ROTATION(DEG)   0.      DETERMINANT-1.; ROTATION(DEG)   0.
 TRANSLA (  0.000    0.000    0.000)     TRANSLA (  0.000    0.000    0.000)
 uvw/hkl (  1.000   -1.000    0.000)     uvw/hkl (  1.000    1.000    0.000)
 LOCATED (  0.000    0.000    0.000)     LOCATED (  0.000    0.000    0.000)

   NO.  15 INVERSE  16    ORDER   4        NO.  16 INVERSE  15    ORDER   4
    0.000  -1.000   0.000     0.000         0.000   1.000   0.000     0.000
    1.000   0.000   0.000     0.000        -1.000   0.000   0.000     0.000
    0.000   0.000  -1.000     0.000         0.000   0.000  -1.000     0.000
             OPERATION S(   4)                       OPERATION S(   4)
 DETERMINANT-1.; ROTATION(DEG)  90.      DETERMINANT-1.; ROTATION(DEG)  90.
 TRANSLA (  0.000    0.000    0.000)     TRANSLA (  0.000    0.000    0.000)
 uvw/hkl (  0.000    0.000    2.000)     uvw/hkl (  0.000    0.000    2.000)
 LOCATED (  0.000    0.000    0.000)     LOCATED (  0.000    0.000    0.000)
 SSSSSSSSSSSSSSSSSSSSSSSSSSSSSSSSSSSSSSSSSSSSSSSSSSSSSSSSSSSSSSSSSSSSSSSSSSSSSS
 REDUCTION OF SYMMETRY - ATOMIC LABELS SET TO (ATOM, AT. N., LABEL)
   1(229) 1;   2(229) 1;   3(229) 2;   4(229) 2;   5(229) 2;   6(229) 1;
   7(229) 1;   8(229) 2;   9(208) 0;  10(208) 0;  11(208) 0;  12(208) 0;
  13(208) 0;  14(208) 0;  15(208) 0;  16(208) 0;  17(208) 0;  18(208) 0;
  19(208) 0;  20(208) 0;  21(208) 0;  22(208) 0;  23(208) 0;  24(208) 0;
  25(238) 0;  26(238) 0;  27(238) 0;  28(238) 0;  29(238) 0;  30(238) 0;
  31(238) 0;  32(238) 0;
 THE NUMBER OF SYMMETRY OPERATORS HAS BEEN REDUCED FROM 16 TO  4
 *******************************************************************************

 GCALCO - MAX INDICES DIRECT LATTICE VECTOR     9     9    32
 NO.OF VECTORS CREATED 6999 STARS  569 RMAX   168.68580 BOHR

 GEOMETRY FOR WAVE FUNCTION - DIMENSIONALITY OF THE SYSTEM    3
 (NON PERIODIC DIRECTION: LATTICE PARAMETER FORMALLY SET TO 500)
 *******************************************************************************
 LATTICE PARAMETERS (ANGSTROMS AND DEGREES) - BOHR = 0.5291772083 ANGSTROM
 PRIMITIVE CELL - CENTRING CODE 1/1 VOLUME=   423.813486 - DENSITY  5.731 g/cm^3
         A              B              C           ALPHA      BETA       GAMMA 
    11.10963748    11.10963748     3.43380000    90.000000  90.000000  90.000000
 *******************************************************************************
 ATOMS IN THE ASYMMETRIC UNIT   20 - ATOMS IN THE UNIT CELL:   32
     ATOM                 X/A                 Y/B                 Z/C    
 *******************************************************************************
      1 T 229 CU   -5.000000000000E-01 -5.000000000000E-01  0.000000000000E+00
      2 T 229 CU    2.500000000000E-01  2.500000000000E-01  0.000000000000E+00
      3 T 229 CU    0.000000000000E+00  0.000000000000E+00  0.000000000000E+00
      4 T 229 CU   -2.500000000000E-01 -2.500000000000E-01  0.000000000000E+00
      5 F 229 CU    2.500000000000E-01 -2.500000000000E-01  0.000000000000E+00
      6 T 229 CU    0.000000000000E+00 -5.000000000000E-01  0.000000000000E+00
      7 F 229 CU   -2.500000000000E-01  2.500000000000E-01  0.000000000000E+00
      8 T 229 CU   -5.000000000000E-01  0.000000000000E+00  0.000000000000E+00
      9 T 208 O    -3.750000000000E-01 -3.750000000000E-01  0.000000000000E+00
     10 T 208 O     3.750000000000E-01  3.750000000000E-01  0.000000000000E+00
     11 T 208 O     1.250000000000E-01  1.250000000000E-01  0.000000000000E+00
     12 T 208 O    -1.250000000000E-01 -1.250000000000E-01  0.000000000000E+00
     13 T 208 O     3.750000000000E-01 -1.250000000000E-01  0.000000000000E+00
     14 T 208 O     1.250000000000E-01 -3.750000000000E-01  0.000000000000E+00
     15 T 208 O    -1.250000000000E-01  3.750000000000E-01  0.000000000000E+00
     16 T 208 O    -3.750000000000E-01  1.250000000000E-01  0.000000000000E+00
     17 F 208 O    -3.750000000000E-01  3.750000000000E-01  0.000000000000E+00
     18 F 208 O     3.750000000000E-01  1.250000000000E-01  0.000000000000E+00
     19 F 208 O     1.250000000000E-01 -1.250000000000E-01  0.000000000000E+00
     20 F 208 O    -1.250000000000E-01 -3.750000000000E-01  0.000000000000E+00
     21 F 208 O     3.750000000000E-01 -3.750000000000E-01  0.000000000000E+00
     22 F 208 O     1.250000000000E-01  3.750000000000E-01  0.000000000000E+00
     23 F 208 O    -1.250000000000E-01  1.250000000000E-01  0.000000000000E+00
     24 F 208 O    -3.750000000000E-01 -1.250000000000E-01  0.000000000000E+00
     25 T 238 SR   -2.500000000000E-01 -5.000000000000E-01  5.000000000000E-01
     26 T 238 SR   -5.000000000000E-01  2.500000000000E-01  5.000000000000E-01
     27 T 238 SR    2.500000000000E-01  0.000000000000E+00  5.000000000000E-01
     28 T 238 SR    0.000000000000E+00 -2.500000000000E-01  5.000000000000E-01
     29 T 238 SR   -5.000000000000E-01 -2.500000000000E-01  5.000000000000E-01
     30 F 238 SR    2.500000000000E-01 -5.000000000000E-01  5.000000000000E-01
     31 T 238 SR    0.000000000000E+00  2.500000000000E-01  5.000000000000E-01
     32 F 238 SR   -2.500000000000E-01  0.000000000000E+00  5.000000000000E-01

 T = ATOM BELONGING TO THE ASYMMETRIC UNIT

 ****    4 SYMMOPS - TRANSLATORS IN FRACTIONAL UNITS
 **** MATRICES AND TRANSLATORS IN THE CRYSTALLOGRAPHIC REFERENCE FRAME
   V INV                    ROTATION MATRICES                   TRANSLATORS
   1   1  1.00  0.00  0.00  0.00  1.00  0.00  0.00  0.00  1.00  0.00  0.00  0.00
   2   2 -1.00  0.00  0.00 -0.00  1.00  0.00  0.00  0.00 -1.00  0.00  0.00  0.00
   3   3  1.00 -0.00  0.00 -0.00  1.00  0.00  0.00  0.00 -1.00  0.00  0.00  0.00
   4   4 -1.00  0.00  0.00 -0.00  1.00  0.00  0.00  0.00  1.00  0.00  0.00  0.00

 DIRECT LATTICE VECTORS CARTESIAN COMPONENTS (ANGSTROM)
          X                    Y                    Z
  -0.785570000000E+01  -0.785570000000E+01   0.000000000000E+00
   0.785570000000E+01  -0.785570000000E+01   0.000000000000E+00
   0.000000000000E+00   0.000000000000E+00   0.343380000000E+01


 CARTESIAN COORDINATES - PRIMITIVE CELL
 *******************************************************************************
 *      ATOM          X(ANGSTROM)         Y(ANGSTROM)         Z(ANGSTROM)
 *******************************************************************************
    1   229 CU    0.000000000000E+00 -7.855700000000E+00  0.000000000000E+00
    2   229 CU    0.000000000000E+00 -3.927850000000E+00  0.000000000000E+00
    3   229 CU    0.000000000000E+00  0.000000000000E+00  0.000000000000E+00
    4   229 CU    4.700037766092E-16  3.927850000000E+00  0.000000000000E+00
    5   229 CU   -3.927850000000E+00  1.645013218132E-15  0.000000000000E+00
    6   229 CU    3.927850000000E+00 -3.927850000000E+00  0.000000000000E+00
    7   229 CU    3.927850000000E+00  4.700037766092E-16  0.000000000000E+00
    8   229 CU   -3.927850000000E+00 -3.927850000000E+00  0.000000000000E+00
    9   208 O    -9.400075532184E-16  5.891775000000E+00  0.000000000000E+00
   10   208 O    -9.400075532184E-16 -5.891775000000E+00  0.000000000000E+00
   11   208 O     0.000000000000E+00 -1.963925000000E+00  0.000000000000E+00
   12   208 O     4.700037766092E-16  1.963925000000E+00  0.000000000000E+00
   13   208 O    -3.927850000000E+00 -1.963925000000E+00  0.000000000000E+00
   14   208 O    -3.927850000000E+00  1.963925000000E+00  0.000000000000E+00
   15   208 O     3.927850000000E+00 -1.963925000000E+00  0.000000000000E+00
   16   208 O     3.927850000000E+00  1.963925000000E+00  0.000000000000E+00
   17   208 O     5.891775000000E+00  9.400075532184E-16  0.000000000000E+00
   18   208 O    -1.963925000000E+00 -3.927850000000E+00  0.000000000000E+00
   19   208 O    -1.963925000000E+00  0.000000000000E+00  0.000000000000E+00
   20   208 O    -1.963925000000E+00  3.927850000000E+00  0.000000000000E+00
   21   208 O    -5.891775000000E+00  1.880015106437E-15  0.000000000000E+00
   22   208 O     1.963925000000E+00 -3.927850000000E+00  0.000000000000E+00
   23   208 O     1.963925000000E+00  4.700037766092E-16  0.000000000000E+00
   24   208 O     1.963925000000E+00  3.927850000000E+00  0.000000000000E+00
   25   238 SR    5.891775000000E+00 -1.963925000000E+00  1.716900000000E+00
   26   238 SR   -1.963925000000E+00 -5.891775000000E+00  1.716900000000E+00
   27   238 SR   -1.963925000000E+00 -1.963925000000E+00  1.716900000000E+00
   28   238 SR   -1.963925000000E+00  1.963925000000E+00  1.716900000000E+00
   29   238 SR   -5.891775000000E+00 -1.963925000000E+00  1.716900000000E+00
   30   238 SR    1.963925000000E+00 -5.891775000000E+00  1.716900000000E+00
   31   238 SR    1.963925000000E+00 -1.963925000000E+00  1.716900000000E+00
   32   238 SR    1.963925000000E+00  1.963925000000E+00  1.716900000000E+00

 *******************************************************************************
 *** PSEUDOPOTENTIAL INFORMATION ***
 *******************************************************************************

 ATOMIC NUMBER  29, NUCLEAR CHARGE 19.000, GIVEN IN INPUT       PSEUDOPOTENTIAL
   TYPE       EXPONENT      COEFF.    N      EXPONENT      COEFF.    N
  W0 TMS     6.2514963   19.0000000  -1     6.7272533  118.7784294   1
             6.6102459 -105.8998240   0
  P0 TMS    12.3656871  127.3506942   0
  P1 TMS    11.1607294   71.2298490   0

 ATOMIC NUMBER   8, NUCLEAR CHARGE  6.000, GIVEN IN INPUT       PSEUDOPOTENTIAL
   TYPE       EXPONENT      COEFF.    N      EXPONENT      COEFF.    N
  W0 TMS     9.2979390    6.0000000  -1     8.8649220   55.7876342   1
             8.6292567  -38.8197850   0
  P0 TMS     8.7192445   38.4191413   0

 ATOMIC NUMBER  38, NUCLEAR CHARGE  2.000, GIVEN IN INPUT       PSEUDOPOTENTIAL
   TYPE       EXPONENT      COEFF.    N      EXPONENT      COEFF.    N
  W0 TMS     4.3839388    2.0000000  -1     3.1964983    8.7678775   1
             0.9899150  -14.2552431   0
  P0 TMS     1.2868349  146.8716052   0
  P1 TMS     0.9567448  140.0262284   0
  P2 TMS     1.9483165   24.4454878   0

 *******************************************************************************
 LOCAL ATOMIC FUNCTIONS BASIS SET
 *******************************************************************************
   ATOM   X(AU)   Y(AU)   Z(AU)  N. TYPE  EXPONENT  S COEF   P COEF   D/F/G COEF
 *******************************************************************************
   1 CU   0.000 -14.845   0.000
                                  1 S  
                                         2.785E+01-1.934E-02 0.000E+00 0.000E+00
                                         2.142E+01 8.861E-02 0.000E+00 0.000E+00
                                         1.054E+01-3.559E-01 0.000E+00 0.000E+00
                                         2.536E+00 5.381E-01 0.000E+00 0.000E+00
                                         1.250E+00 5.111E-01 0.000E+00 0.000E+00
                                         5.998E-01 1.476E-01 0.000E+00 0.000E+00
                                  2 S  
                                         2.785E+01-2.653E-03 0.000E+00 0.000E+00
                                         2.142E+01-7.542E-03 0.000E+00 0.000E+00
                                         1.054E+01 7.976E-02 0.000E+00 0.000E+00
                                         2.536E+00-1.553E-01 0.000E+00 0.000E+00
                                         1.250E+00-2.531E-01 0.000E+00 0.000E+00
                                         5.998E-01-2.817E-02 0.000E+00 0.000E+00
                           3-     5 P  
                                         1.859E+01 0.000E+00 3.652E-03 0.000E+00
                                         1.430E+01 0.000E+00-3.708E-02 0.000E+00
                                         5.631E+00 0.000E+00 2.171E-01 0.000E+00
                                         2.683E+00 0.000E+00 4.410E-01 0.000E+00
                                         1.259E+00 0.000E+00 3.587E-01 0.000E+00
                                         5.741E-01 0.000E+00 1.148E-01 0.000E+00
                                         2.092E-01 0.000E+00 7.316E-03 0.000E+00
                           6-    10 D  
                                         1.579E+01 0.000E+00 0.000E+00 8.422E-02
                                         7.203E+00 0.000E+00 0.000E+00 2.554E-01
                                         2.974E+00 0.000E+00 0.000E+00 3.500E-01
                                         1.207E+00 0.000E+00 0.000E+00 3.417E-01
                                         4.640E-01 0.000E+00 0.000E+00 2.417E-01
                          11-    17 F  
                                         1.692E+00 0.000E+00 0.000E+00 1.000E+00
                                 18 S  
                                         2.000E-01 1.000E+00 0.000E+00 0.000E+00
                                 19 S  
                                         6.000E-01 1.000E+00 0.000E+00 0.000E+00
                          20-    22 P  
                                         2.000E-01 0.000E+00 1.000E+00 0.000E+00
                          23-    25 P  
                                         6.000E-01 0.000E+00 1.000E+00 0.000E+00
                          26-    30 D  
                                         2.000E-01 0.000E+00 0.000E+00 1.000E+00
                          31-    35 D  
                                         6.000E-01 0.000E+00 0.000E+00 1.000E+00
   2 CU   0.000  -7.423   0.000
   3 CU   0.000   0.000   0.000
   4 CU   0.000   7.423   0.000
   5 CU  -7.423   0.000   0.000
   6 CU   7.423  -7.423   0.000
   7 CU   7.423   0.000   0.000
   8 CU  -7.423  -7.423   0.000
   9 O   -0.000  11.134   0.000
                                281 S  
                                         2.680E-01 3.048E-01 0.000E+00 0.000E+00
                                         5.731E-01 4.538E-01 0.000E+00 0.000E+00
                                         1.225E+00 2.959E-01 0.000E+00 0.000E+00
                                         2.620E+00 1.957E-02 0.000E+00 0.000E+00
                                         5.603E+00-1.286E-01 0.000E+00 0.000E+00
                                         1.198E+01 1.202E-02 0.000E+00 0.000E+00
                                         2.562E+01 4.070E-04 0.000E+00 0.000E+00
                                         5.478E+01-7.600E-05 0.000E+00 0.000E+00
                         282-   284 P  
                                         3.337E-01 0.000E+00 2.560E-01 0.000E+00
                                         6.666E-01 0.000E+00 2.819E-01 0.000E+00
                                         1.332E+00 0.000E+00 2.428E-01 0.000E+00
                                         2.661E+00 0.000E+00 1.611E-01 0.000E+00
                                         5.316E+00 0.000E+00 8.231E-02 0.000E+00
                                         1.062E+01 0.000E+00 3.990E-02 0.000E+00
                                         2.122E+01 0.000E+00 4.679E-03 0.000E+00
                         285-   289 D  
                                         6.693E-01 0.000E+00 0.000E+00 1.000E+00
                         290-   296 F  
                                         1.423E+00 0.000E+00 0.000E+00 1.000E+00
                                297 S  
                                         2.000E-01 1.000E+00 0.000E+00 0.000E+00
                                298 S  
                                         6.000E-01 1.000E+00 0.000E+00 0.000E+00
                         299-   301 P  
                                         2.000E-01 0.000E+00 1.000E+00 0.000E+00
                         302-   304 P  
                                         6.000E-01 0.000E+00 1.000E+00 0.000E+00
  10 O   -0.000 -11.134   0.000
  11 O    0.000  -3.711   0.000
  12 O    0.000   3.711   0.000
  13 O   -7.423  -3.711   0.000
  14 O   -7.423   3.711   0.000
  15 O    7.423  -3.711   0.000
  16 O    7.423   3.711   0.000
  17 O   11.134   0.000   0.000
  18 O   -3.711  -7.423   0.000
  19 O   -3.711   0.000   0.000
  20 O   -3.711   7.423   0.000
  21 O  -11.134   0.000   0.000
  22 O    3.711  -7.423   0.000
  23 O    3.711   0.000   0.000
  24 O    3.711   7.423   0.000
  25 SR  11.134  -3.711   3.244
                                665 S  
                                         2.177E-01-9.389E-02 0.000E+00 0.000E+00
                                         4.871E-01-2.476E-01 0.000E+00 0.000E+00
                                         1.090E+00 1.601E-01 0.000E+00 0.000E+00
                                         2.439E+00-4.360E-02 0.000E+00 0.000E+00
                                         5.457E+00 8.684E-03 0.000E+00 0.000E+00
                                         1.221E+01-1.296E-03 0.000E+00 0.000E+00
                         666-   668 P  
                                         2.236E-01 0.000E+00-4.747E-02 0.000E+00
                                         4.507E-01 0.000E+00-1.710E-01 0.000E+00
                                         9.086E-01 0.000E+00 1.048E-01 0.000E+00
                                         1.831E+00 0.000E+00-2.952E-02 0.000E+00
                                         3.692E+00 0.000E+00 6.196E-03 0.000E+00
                                         7.442E+00 0.000E+00-9.550E-04 0.000E+00
                         669-   673 D  
                                         5.283E-01 0.000E+00 0.000E+00 1.000E+00
                                674 S  
                                         2.000E-01 1.000E+00 0.000E+00 0.000E+00
                                675 S  
                                         6.000E-01 1.000E+00 0.000E+00 0.000E+00
                         676-   678 P  
                                         2.000E-01 0.000E+00 1.000E+00 0.000E+00
                         679-   681 P  
                                         6.000E-01 0.000E+00 1.000E+00 0.000E+00
  26 SR  -3.711 -11.134   3.244
  27 SR  -3.711  -3.711   3.244
  28 SR  -3.711   3.711   3.244
  29 SR -11.134  -3.711   3.244
  30 SR   3.711 -11.134   3.244
  31 SR   3.711  -3.711   3.244
  32 SR   3.711   3.711   3.244
 INFORMATION **** SET_MPP **** PCRYSTAL CALCULATION
 INFORMATION **** READM2 **** NEW DEFAULT: FOCK/KS MATRIX MIXING SET TO 30 %
 INFORMATION **** READM2 **** NEW DEFAULT: FULL DIRECT SCF MODE
 INFORMATION **** READM2 **** NEW DEFAULT: COULOMB BIPOLAR BUFFER SET TO 32 Mb
 INFORMATION **** READM2 **** NEW DEFAULT: EXCHANGE BIPOLAR BUFFER SET TO 32 Mb

 *******************************************************************************
 NEW DEFAULT: DFT INTEGRATION GRID INCREASED TO XLGRID
 NEW DEFAULT: DIIS ACCELERATOR ACTIVE
 USE KEYWORD NODIIS TO TURN IT OFF
 *******************************************************************************

 INFORMATION **** READM2 **** FULL DIRECT SCF (MONO AND BIEL INT) SELECTED
 INFORMATION **** BIPOSIZE **** COULOMB BIPOLAR BUFFER SET TO   100000000
 INFORMATION **** EXCHSIZE **** EXCHANGE BIPOLAR BUFFER SIZE SET TO    10000000
 INFORMATION **** TOLDEE **** SCF TOL ON TOTAL ENERGY SET TO          10
 INFORMATION **** TOLINTEG **** COULOMB AND EXCHANGE SERIES TOLERANCES MODIFIED
 INFORMATION **** MAXCYCLE **** MAX NUMBER OF SCF CYCLES SET TO         200
 INFORMATION **** SMEAR **** FERMI SMEARING ACTIVE
 FERMI SMEARING - TEMPERATURE SMEARING OF FERMI SURFACE  0.1000E-12
 INFORMATION **** SAVEWF **** not fully tested
[golub042:104423] 15 more processes have sent help message help-mpi-btl-openib.txt / no device params found
[golub042:104423] Set MCA parameter "orte_base_help_aggregate" to 0 to see all help / error messages
 INFORMATION **** SPINLOCK **** LOCK IN A GIVEN SPIN STATE
 ALPHA-BETA ELECTRONS LOCKED TO   0 FOR 200 SCF CYCLES
 SSSSSSSSSSSSSSSSSSSSSSSSSSSSSSSSSSSSSSSSSSSSSSSSSSSSSSSSSSSSSSSSSSSSSSSSSSSSSS
 ATOMIC SPINS SET TO (ATOM, AT. N., SPIN)
   1 229 1   2 229 1   3 229-1   4 229-1   5 229-1   6 229 1   7 229 1   8 229-1
   9 208 0  10 208 0  11 208 0  12 208 0  13 208 0  14 208 0  15 208 0  16 208 0
  17 208 0  18 208 0  19 208 0  20 208 0  21 208 0  22 208 0  23 208 0  24 208 0
  25 238 0  26 238 0  27 238 0  28 238 0  29 238 0  30 238 0  31 238 0  32 238 0
 *******************************************************************************
 N. OF ATOMS PER CELL        32  COULOMB OVERLAP TOL         (T1) 10**   -8
 NUMBER OF SHELLS           272  COULOMB PENETRATION TOL     (T2) 10**   -8
 NUMBER OF AO               800  EXCHANGE OVERLAP TOL        (T3) 10**   -8
 N. OF ELECTRONS PER CELL   264  EXCHANGE PSEUDO OVP (F(G))  (T4) 10**   -8
 CORE ELECTRONS PER CELL      0  EXCHANGE PSEUDO OVP (P(G))  (T5) 10**  -16
 N. OF SYMMETRY OPERATORS     4  POLE ORDER IN MONO ZONE                  4
 *******************************************************************************
 TYPE OF CALCULATION :  UNRESTRICTED OPEN SHELL
 KOHN-SHAM HAMILTONIAN

 (EXCHANGE)[CORRELATION] FUNCTIONAL:(PERDEW-BURKE-ERNZERHOF)[PERDEW-BURKE-ERNZERHOF]


 HYBRID EXCHANGE - PERCENTAGE OF FOCK EXCHANGE    25.0000

 SPIN POLARIZED DFT SELECTED
 CORE  PSEUDO POTENTIAL         TOL. ON PSEUDO              (TP) 10**- 6

 CAPPA:IS1  5;IS2  5;IS3  4; K PTS MONK NET  27; SYMMOPS:K SPACE   8;G SPACE   4

 *******************************************************************************
 MAX NUMBER OF SCF CYCLES     200  CONVERGENCE ON DELTAP        10**-20
 WEIGHT OF F(I) IN F(I+1)      90% CONVERGENCE ON ENERGY        10**-10
 SHRINK. FACT.(MONKH.)    5  5  4  NUMBER OF K POINTS IN THE IBZ     27
 SHRINKING FACTOR(GILAT NET)   10  NUMBER OF K POINTS(GILAT NET)    180
 *******************************************************************************
 *** K POINTS COORDINATES (OBLIQUE COORDINATES IN UNITS OF IS =  5)
   1-R(  0  0  0)   2-C(  1  0  0)   3-C(  2  0  0)   4-C(  0  1  0)
   5-C(  1  1  0)   6-C(  2  1  0)   7-C(  0  2  0)   8-C(  1  2  0)
   9-C(  2  2  0)  10-C(  0  0  1)  11-C(  1  0  1)  12-C(  2  0  1)
  13-C(  0  1  1)  14-C(  1  1  1)  15-C(  2  1  1)  16-C(  0  2  1)
  17-C(  1  2  1)  18-C(  2  2  1)  19-R(  0  0  2)  20-C(  1  0  2)
  21-C(  2  0  2)  22-C(  0  1  2)  23-C(  1  1  2)  24-C(  2  1  2)
  25-C(  0  2  2)  26-C(  1  2  2)  27-C(  2  2  2)

 DIRECT LATTICE VECTORS COMPON. (A.U.)     RECIP. LATTICE VECTORS COMPON. (A.U.) 
        X            Y            Z              X            Y            Z
  -14.8451216  -14.8451216    0.0000000     -0.2116246   -0.2116246    0.0000000
   14.8451216  -14.8451216    0.0000000      0.2116246   -0.2116246    0.0000000
    0.0000000    0.0000000    6.4889416      0.0000000    0.0000000    0.9682912

 DISK SPACE FOR EIGENVECTORS (FTN 10)    33280000 REALS

 SYMMETRY ADAPTION OF THE BLOCH FUNCTIONS ENABLED
 TTTTTTTTTTTTTTTTTTTTTTTTTTTTTT gordsh1     TELAPSE        7.30 TCPU        0.06

 MATRIX SIZE: P(G) 2526000, F(G)  450872, P(G) IRR  406104, F(G) IRR  158476
 MAX G-VECTOR INDEX FOR 1- AND 2-ELECTRON INTEGRALS  75

 TTTTTTTTTTTTTTTTTTTTTTTTTTTTTT INPUT       TELAPSE        7.35 TCPU        0.10

 NEIGHBORS OF THE NON-EQUIVALENT ATOMS

 N = NUMBER OF NEIGHBORS AT DISTANCE R
    ATOM  N     R/ANG      R/AU   NEIGHBORS (ATOM LABELS AND CELL INDICES)
   1 CU   4     1.9639     3.7113    9 O    1 1 0   10 O    0 0 0   17 O    1 0 0
                                    21 O    0 1 0
   1 CU   8     3.2652     6.1704   25 SR   1 0 0   25 SR   1 0-1   26 SR   0 0 0
                                    26 SR   0 0-1   29 SR   0 1 0   29 SR   0 1-1
                                    30 SR   0 0-1   30 SR   0 0 0
   1 CU   2     3.4338     6.4889    1 CU   0 0-1    1 CU   0 0 1
   1 CU   4     3.9278     7.4226    2 CU   0 0 0    4 CU   1 1 0    5 CU   0 1 0
                                     7 CU   1 0 0
   1 CU   8     3.9558     7.4753    9 O    1 1 1    9 O    1 1-1   10 O    0 0 1
                                    10 O    0 0-1   17 O    1 0-1   17 O    1 0 1
                                    21 O    0 1-1   21 O    0 1 1
   1 CU   8     4.3915     8.2987   13 O    0 1 0   14 O    0 1 0   15 O    1 0 0
                                    16 O    1 0 0   18 O    0 0 0   20 O    1 1 0
                                    22 O    0 0 0   24 O    1 1 0

   2 CU   4     1.9639     3.7113   10 O    0 0 0   11 O    0 0 0   18 O    0 0 0
                                    22 O    0 0 0
   2 CU   8     3.2652     6.1704   26 SR   0 0 0   26 SR   0 0-1   27 SR   0 0 0
                                    27 SR   0 0-1   30 SR   0 0 0   30 SR   0 0-1
                                    31 SR   0 0 0   31 SR   0 0-1
   2 CU   2     3.4338     6.4889    2 CU   0 0-1    2 CU   0 0 1
   2 CU   4     3.9278     7.4226    1 CU   0 0 0    3 CU   0 0 0    6 CU   0 0 0
                                     8 CU   0 0 0
   2 CU   8     3.9558     7.4753   10 O    0 0-1   10 O    0 0 1   11 O    0 0 1
                                    11 O    0 0-1   18 O    0 0-1   18 O    0 0 1
                                    22 O    0 0 1   22 O    0 0-1
   2 CU   8     4.3915     8.2987   13 O    0 0 0   14 O    0 1 0   15 O    0 0 0
                                    16 O    1 0 0   17 O    1 0 0   19 O    0 0 0
                                    21 O    0 1 0   23 O    0 0 0

   3 CU   4     1.9639     3.7113   11 O    0 0 0   12 O    0 0 0   19 O    0 0 0
                                    23 O    0 0 0
   3 CU   8     3.2652     6.1704   27 SR   0 0-1   27 SR   0 0 0   28 SR   0 0 0
                                    28 SR   0 0-1   31 SR   0 0 0   31 SR   0 0-1
                                    32 SR   0 0 0   32 SR   0 0-1
   3 CU   2     3.4338     6.4889    3 CU   0 0-1    3 CU   0 0 1
   3 CU   4     3.9278     7.4226    2 CU   0 0 0    4 CU   0 0 0    5 CU   0 0 0
                                     7 CU   0 0 0
   3 CU   8     3.9558     7.4753   11 O    0 0-1   11 O    0 0 1   12 O    0 0 1
                                    12 O    0 0-1   19 O    0 0-1   19 O    0 0 1
                                    23 O    0 0 1   23 O    0 0-1
   3 CU   8     4.3915     8.2987   13 O    0 0 0   14 O    0 0 0   15 O    0 0 0
                                    16 O    0 0 0   18 O    0 0 0   20 O    0 0 0
                                    22 O    0 0 0   24 O    0 0 0

   4 CU   4     1.9639     3.7113    9 O    0 0 0   12 O    0 0 0   20 O    0 0 0
                                    24 O    0 0 0
   4 CU   8     3.2652     6.1704   25 SR   0-1 0   25 SR   0-1-1   28 SR   0 0-1
                                    28 SR   0 0 0   29 SR  -1 0-1   29 SR  -1 0 0
                                    32 SR   0 0 0   32 SR   0 0-1
   4 CU   2     3.4338     6.4889    4 CU   0 0-1    4 CU   0 0 1
   4 CU   4     3.9279     7.4226    1 CU  -1-1 0    3 CU   0 0 0    6 CU   0-1 0
                                     8 CU  -1 0 0
   4 CU   8     3.9558     7.4753    9 O    0 0 1    9 O    0 0-1   12 O    0 0-1
                                    12 O    0 0 1   20 O    0 0-1   20 O    0 0 1
                                    24 O    0 0 1   24 O    0 0-1
   4 CU   8     4.3915     8.2987   13 O   -1 0 0   14 O    0 0 0   15 O    0-1 0
                                    16 O    0 0 0   17 O    0-1 0   19 O    0 0 0
                                    21 O   -1 0 0   23 O    0 0 0

   6 CU   4     1.9639     3.7113   14 O    0 1 0   15 O    0 0 0   20 O    0 1 0
                                    22 O    0 0 0
   6 CU   8     3.2652     6.1704   25 SR   0 0 0   25 SR   0 0-1   28 SR   0 1 0
                                    28 SR   0 1-1   30 SR   0 0-1   30 SR   0 0 0
                                    31 SR   0 0 0   31 SR   0 0-1
   6 CU   2     3.4338     6.4889    6 CU   0 0-1    6 CU   0 0 1
   6 CU   4     3.9278     7.4226    2 CU   0 0 0    4 CU   0 1 0    5 CU   0 1 0
                                     7 CU   0 0 0
   6 CU   8     3.9558     7.4753   14 O    0 1 1   14 O    0 1-1   15 O    0 0 1
                                    15 O    0 0-1   20 O    0 1-1   20 O    0 1 1
                                    22 O    0 0-1   22 O    0 0 1
   6 CU   8     4.3915     8.2987    9 O    0 1 0   10 O    0 0 0   11 O    0 0 0
                                    12 O    0 1 0   17 O    0 0 0   19 O    0 1 0
                                    21 O    0 1 0   23 O    0 0 0

   8 CU   4     1.9639     3.7113   13 O    0 0 0   16 O    1 0 0   18 O    0 0 0
                                    24 O    1 0 0
   8 CU   8     3.2652     6.1704   26 SR   0 0 0   26 SR   0 0-1   27 SR   0 0-1
                                    27 SR   0 0 0   29 SR   0 0 0   29 SR   0 0-1
                                    32 SR   1 0 0   32 SR   1 0-1
   8 CU   2     3.4338     6.4889    8 CU   0 0-1    8 CU   0 0 1
   8 CU   4     3.9278     7.4226    2 CU   0 0 0    4 CU   1 0 0    5 CU   0 0 0
                                     7 CU   1 0 0
   8 CU   8     3.9558     7.4753   13 O    0 0 1   13 O    0 0-1   16 O    1 0 1
                                    16 O    1 0-1   18 O    0 0-1   18 O    0 0 1
                                    24 O    1 0-1   24 O    1 0 1
   8 CU   8     4.3915     8.2987    9 O    1 0 0   10 O    0 0 0   11 O    0 0 0
                                    12 O    1 0 0   17 O    1 0 0   19 O    0 0 0
                                    21 O    0 0 0   23 O    1 0 0

   9 O    2     1.9639     3.7113    1 CU  -1-1 0    4 CU   0 0 0
   9 O    4     2.6086     4.9295   25 SR   0-1 0   25 SR   0-1-1   29 SR  -1 0 0
                                    29 SR  -1 0-1
   9 O    4     2.7774     5.2485   17 O    0-1 0   20 O    0 0 0   21 O   -1 0 0
                                    24 O    0 0 0
   9 O    2     3.4338     6.4889    9 O    0 0-1    9 O    0 0 1
   9 O    4     3.9279     7.4226   10 O   -1-1 0   12 O    0 0 0   13 O   -1 0 0
                                    15 O    0-1 0
   9 O    4     3.9558     7.4753    1 CU  -1-1-1    1 CU  -1-1 1    4 CU   0 0-1
                                     4 CU   0 0 1

  10 O    2     1.9639     3.7113    1 CU   0 0 0    2 CU   0 0 0
  10 O    4     2.6086     4.9295   26 SR   0 0 0   26 SR   0 0-1   30 SR   0 0 0
                                    30 SR   0 0-1
  10 O    4     2.7774     5.2485   17 O    1 0 0   18 O    0 0 0   21 O    0 1 0
                                    22 O    0 0 0
  10 O    2     3.4338     6.4889   10 O    0 0-1   10 O    0 0 1
  10 O    4     3.9279     7.4226    9 O    1 1 0   11 O    0 0 0   14 O    0 1 0
                                    16 O    1 0 0
  10 O    4     3.9558     7.4753    1 CU   0 0-1    1 CU   0 0 1    2 CU   0 0 1
                                     2 CU   0 0-1

  11 O    2     1.9639     3.7113    2 CU   0 0 0    3 CU   0 0 0
  11 O    4     2.6086     4.9295   27 SR   0 0 0   27 SR   0 0-1   31 SR   0 0 0
                                    31 SR   0 0-1
  11 O    4     2.7774     5.2485   18 O    0 0 0   19 O    0 0 0   22 O    0 0 0
                                    23 O    0 0 0
  11 O    2     3.4338     6.4889   11 O    0 0-1   11 O    0 0 1
  11 O    4     3.9278     7.4226   10 O    0 0 0   12 O    0 0 0   13 O    0 0 0
                                    15 O    0 0 0
  11 O    4     3.9558     7.4753    2 CU   0 0-1    2 CU   0 0 1    3 CU   0 0 1
                                     3 CU   0 0-1

  12 O    2     1.9639     3.7113    3 CU   0 0 0    4 CU   0 0 0
  12 O    4     2.6086     4.9295   28 SR   0 0 0   28 SR   0 0-1   32 SR   0 0 0
                                    32 SR   0 0-1
  12 O    4     2.7774     5.2485   19 O    0 0 0   20 O    0 0 0   23 O    0 0 0
                                    24 O    0 0 0
  12 O    2     3.4338     6.4889   12 O    0 0-1   12 O    0 0 1
  12 O    4     3.9279     7.4226    9 O    0 0 0   11 O    0 0 0   14 O    0 0 0
                                    16 O    0 0 0
  12 O    4     3.9558     7.4753    3 CU   0 0-1    3 CU   0 0 1    4 CU   0 0 1
                                     4 CU   0 0-1

  13 O    2     1.9639     3.7113    5 CU   0 0 0    8 CU   0 0 0
  13 O    4     2.6086     4.9295   27 SR   0 0 0   27 SR   0 0-1   29 SR   0 0 0
                                    29 SR   0 0-1
  13 O    4     2.7774     5.2485   18 O    0 0 0   19 O    0 0 0   21 O    0 0 0
                                    24 O    1 0 0
  13 O    2     3.4338     6.4889   13 O    0 0-1   13 O    0 0 1
  13 O    4     3.9278     7.4226    9 O    1 0 0   11 O    0 0 0   14 O    0 0 0
                                    16 O    1 0 0
  13 O    4     3.9558     7.4753    5 CU   0 0 1    5 CU   0 0-1    8 CU   0 0-1
                                     8 CU   0 0 1

  14 O    2     1.9639     3.7113    5 CU   0 0 0    6 CU   0-1 0
  14 O    4     2.6086     4.9295   28 SR   0 0 0   28 SR   0 0-1   30 SR   0-1 0
                                    30 SR   0-1-1
  14 O    4     2.7774     5.2485   19 O    0 0 0   20 O    0 0 0   21 O    0 0 0
                                    22 O    0-1 0
  14 O    2     3.4338     6.4889   14 O    0 0-1   14 O    0 0 1
  14 O    4     3.9278     7.4226   10 O    0-1 0   12 O    0 0 0   13 O    0 0 0
                                    15 O    0-1 0
  14 O    4     3.9558     7.4753    5 CU   0 0-1    5 CU   0 0 1    6 CU   0-1-1
                                     6 CU   0-1 1

  15 O    2     1.9639     3.7113    6 CU   0 0 0    7 CU   0 0 0
  15 O    4     2.6086     4.9295   25 SR   0 0 0   25 SR   0 0-1   31 SR   0 0 0
                                    31 SR   0 0-1
  15 O    4     2.7774     5.2485   17 O    0 0 0   20 O    0 1 0   22 O    0 0 0
                                    23 O    0 0 0
  15 O    2     3.4338     6.4889   15 O    0 0-1   15 O    0 0 1
  15 O    4     3.9278     7.4226    9 O    0 1 0   11 O    0 0 0   14 O    0 1 0
                                    16 O    0 0 0
  15 O    4     3.9558     7.4753    6 CU   0 0-1    6 CU   0 0 1    7 CU   0 0 1
                                     7 CU   0 0-1

  16 O    2     1.9639     3.7113    7 CU   0 0 0    8 CU  -1 0 0
  16 O    4     2.6086     4.9295   26 SR  -1 0 0   26 SR  -1 0-1   32 SR   0 0 0
                                    32 SR   0 0-1
  16 O    4     2.7774     5.2485   17 O    0 0 0   18 O   -1 0 0   23 O    0 0 0
                                    24 O    0 0 0
  16 O    2     3.4338     6.4889   16 O    0 0-1   16 O    0 0 1
  16 O    4     3.9278     7.4226   10 O   -1 0 0   12 O    0 0 0   13 O   -1 0 0
                                    15 O    0 0 0
  16 O    4     3.9558     7.4753    7 CU   0 0-1    7 CU   0 0 1    8 CU  -1 0-1
                                     8 CU  -1 0 1

  25 SR   8     2.6086     4.9295    9 O    0 1 0    9 O    0 1 1   15 O    0 0 0
                                    15 O    0 0 1   17 O    0 0 1   17 O    0 0 0
                                    20 O    0 1 1   20 O    0 1 0
  25 SR   8     3.2652     6.1704    1 CU  -1 0 0    1 CU  -1 0 1    4 CU   0 1 0
                                     4 CU   0 1 1    6 CU   0 0 0    6 CU   0 0 1
                                     7 CU   0 0 0    7 CU   0 0 1
  25 SR   2     3.4338     6.4889   25 SR   0 0-1   25 SR   0 0 1
  25 SR   4     3.9278     7.4226   26 SR  -1 0 0   28 SR   0 1 0   29 SR  -1 1 0
                                    31 SR   0 0 0
  25 SR  16     4.7152     8.9104   10 O   -1 0 0   10 O   -1 0 1   12 O    0 1 0
                                    12 O    0 1 1   14 O    0 1 0   14 O    0 1 1
                                    16 O    0 0 0   16 O    0 0 1   21 O   -1 1 0
                                    21 O   -1 1 1   22 O    0 0 0   22 O    0 0 1
                                    23 O    0 0 1   23 O    0 0 0   24 O    0 1 1
                                    24 O    0 1 0
  25 SR   8     5.2172     9.8590   26 SR  -1 0-1   26 SR  -1 0 1   28 SR   0 1-1
                                    28 SR   0 1 1   29 SR  -1 1-1   29 SR  -1 1 1
                                    31 SR   0 0-1   31 SR   0 0 1

  26 SR   8     2.6086     4.9295   10 O    0 0 0   10 O    0 0 1   16 O    1 0 0
                                    16 O    1 0 1   17 O    1 0 1   17 O    1 0 0
                                    18 O    0 0 1   18 O    0 0 0
  26 SR   8     3.2652     6.1704    1 CU   0 0 0    1 CU   0 0 1    2 CU   0 0 0
                                     2 CU   0 0 1    7 CU   1 0 1    7 CU   1 0 0
                                     8 CU   0 0 0    8 CU   0 0 1
  26 SR   2     3.4338     6.4889   26 SR   0 0-1   26 SR   0 0 1
  26 SR   4     3.9278     7.4226   25 SR   1 0 0   27 SR   0 0 0   30 SR   0 0 0
                                    32 SR   1 0 0
  26 SR  16     4.7152     8.9104    9 O    1 1 0    9 O    1 1 1   11 O    0 0 0
                                    11 O    0 0 1   13 O    0 0 0   13 O    0 0 1
                                    15 O    1 0 0   15 O    1 0 1   21 O    0 1 1
                                    21 O    0 1 0   22 O    0 0 1   22 O    0 0 0
                                    23 O    1 0 1   23 O    1 0 0   24 O    1 0 1
                                    24 O    1 0 0
  26 SR   8     5.2172     9.8590   25 SR   1 0 1   25 SR   1 0-1   27 SR   0 0 1
                                    27 SR   0 0-1   30 SR   0 0-1   30 SR   0 0 1
                                    32 SR   1 0-1   32 SR   1 0 1

  27 SR   8     2.6086     4.9295   11 O    0 0 0   11 O    0 0 1   13 O    0 0 0
                                    13 O    0 0 1   18 O    0 0 1   18 O    0 0 0
                                    19 O    0 0 1   19 O    0 0 0
  27 SR   8     3.2652     6.1704    2 CU   0 0 0    2 CU   0 0 1    3 CU   0 0 1
                                     3 CU   0 0 0    5 CU   0 0 0    5 CU   0 0 1
                                     8 CU   0 0 1    8 CU   0 0 0
  27 SR   2     3.4338     6.4889   27 SR   0 0-1   27 SR   0 0 1
  27 SR   4     3.9278     7.4226   26 SR   0 0 0   28 SR   0 0 0   29 SR   0 0 0
                                    31 SR   0 0 0
  27 SR  16     4.7152     8.9104   10 O    0 0 0   10 O    0 0 1   12 O    0 0 1
                                    12 O    0 0 0   14 O    0 0 0   14 O    0 0 1
                                    16 O    1 0 0   16 O    1 0 1   21 O    0 0 1
                                    21 O    0 0 0   22 O    0 0 1   22 O    0 0 0
                                    23 O    0 0 0   23 O    0 0 1   24 O    1 0 1
                                    24 O    1 0 0
  27 SR   8     5.2172     9.8590   26 SR   0 0-1   26 SR   0 0 1   28 SR   0 0 1
                                    28 SR   0 0-1   29 SR   0 0 1   29 SR   0 0-1
                                    31 SR   0 0 1   31 SR   0 0-1

  28 SR   8     2.6086     4.9295   12 O    0 0 0   12 O    0 0 1   14 O    0 0 0
                                    14 O    0 0 1   19 O    0 0 1   19 O    0 0 0
                                    20 O    0 0 1   20 O    0 0 0
  28 SR   8     3.2652     6.1704    3 CU   0 0 0    3 CU   0 0 1    4 CU   0 0 1
                                     4 CU   0 0 0    5 CU   0 0 0    5 CU   0 0 1
                                     6 CU   0-1 0    6 CU   0-1 1
  28 SR   2     3.4338     6.4889   28 SR   0 0-1   28 SR   0 0 1
  28 SR   4     3.9279     7.4226   25 SR   0-1 0   27 SR   0 0 0   30 SR   0-1 0
                                    32 SR   0 0 0
  28 SR  16     4.7152     8.9104    9 O    0 0 1    9 O    0 0 0   11 O    0 0 0
                                    11 O    0 0 1   13 O    0 0 1   13 O    0 0 0
                                    15 O    0-1 0   15 O    0-1 1   21 O    0 0 0
                                    21 O    0 0 1   22 O    0-1 1   22 O    0-1 0
                                    23 O    0 0 1   23 O    0 0 0   24 O    0 0 0
                                    24 O    0 0 1
  28 SR   8     5.2172     9.8590   25 SR   0-1 1   25 SR   0-1-1   27 SR   0 0-1
                                    27 SR   0 0 1   30 SR   0-1-1   30 SR   0-1 1
                                    32 SR   0 0 1   32 SR   0 0-1

  29 SR   8     2.6086     4.9295    9 O    1 0 0    9 O    1 0 1   13 O    0 0 0
                                    13 O    0 0 1   21 O    0 0 1   21 O    0 0 0
                                    24 O    1 0 1   24 O    1 0 0
  29 SR   8     3.2652     6.1704    1 CU   0-1 0    1 CU   0-1 1    4 CU   1 0 1
                                     4 CU   1 0 0    5 CU   0 0 0    5 CU   0 0 1
                                     8 CU   0 0 0    8 CU   0 0 1
  29 SR   2     3.4338     6.4889   29 SR   0 0-1   29 SR   0 0 1
  29 SR   4     3.9278     7.4226   25 SR   1-1 0   27 SR   0 0 0   30 SR   0-1 0
                                    32 SR   1 0 0
  29 SR  16     4.7152     8.9104   10 O    0-1 0   10 O    0-1 1   12 O    1 0 0
                                    12 O    1 0 1   14 O    0 0 0   14 O    0 0 1
                                    16 O    1 0 0   16 O    1 0 1   17 O    1-1 1
                                    17 O    1-1 0   18 O    0 0 1   18 O    0 0 0
                                    19 O    0 0 1   19 O    0 0 0   20 O    1 0 1
                                    20 O    1 0 0
  29 SR   8     5.2172     9.8590   25 SR   1-1 1   25 SR   1-1-1   27 SR   0 0-1
                                    27 SR   0 0 1   30 SR   0-1-1   30 SR   0-1 1
                                    32 SR   1 0 1   32 SR   1 0-1

  31 SR   8     2.6086     4.9295   11 O    0 0 0   11 O    0 0 1   15 O    0 0 0
                                    15 O    0 0 1   22 O    0 0 1   22 O    0 0 0
                                    23 O    0 0 1   23 O    0 0 0
  31 SR   8     3.2652     6.1704    2 CU   0 0 0    2 CU   0 0 1    3 CU   0 0 0
                                     3 CU   0 0 1    6 CU   0 0 0    6 CU   0 0 1
                                     7 CU   0 0 1    7 CU   0 0 0
  31 SR   2     3.4338     6.4889   31 SR   0 0-1   31 SR   0 0 1
  31 SR   4     3.9279     7.4226   25 SR   0 0 0   27 SR   0 0 0   30 SR   0 0 0
                                    32 SR   0 0 0
  31 SR  16     4.7152     8.9104   10 O    0 0 1   10 O    0 0 0   12 O    0 0 0
                                    12 O    0 0 1   14 O    0 1 0   14 O    0 1 1
                                    16 O    0 0 1   16 O    0 0 0   17 O    0 0 0
                                    17 O    0 0 1   18 O    0 0 0   18 O    0 0 1
                                    19 O    0 0 1   19 O    0 0 0   20 O    0 1 1
                                    20 O    0 1 0
  31 SR   8     5.2172     9.8590   25 SR   0 0 1   25 SR   0 0-1   27 SR   0 0-1
                                    27 SR   0 0 1   30 SR   0 0-1   30 SR   0 0 1
                                    32 SR   0 0 1   32 SR   0 0-1


 SYMMETRY ALLOWED INTERNAL DEGREE(S) OF FREEDOM:  31
 TTTTTTTTTTTTTTTTTTTTTTTTTTTTTT SYMM        TELAPSE        7.52 TCPU        0.23
 TTTTTTTTTTTTTTTTTTTTTTTTTTTTTT INT_SCREEN  TELAPSE        7.57 TCPU        0.28
 INFORMATION **** EXCBUF **** EXCH. BIPO BUFFER: WORDS USED =     8273970

 DFT PARAMETERS

     ATOM       ELECTRONS   NET CHARGE   R(ANGSTROM)
   1 229  CU     17.0000      2.0000     0.73000000
   9 208  O       8.0000     -2.0000     1.40000000
  25 238  SR      0.0000      2.0000     1.18000000

 SIZE OF GRID=     184524
 TTTTTTTTTTTTTTTTTTTTTTTTTTTTTT MAKE_GRID2  TELAPSE       11.80 TCPU        4.50
 BECKE WEIGHT FUNCTION
 RADSAFE =     2.00
 TOLERANCES - DENSITY:10**- 6; POTENTIAL:10**- 9; GRID WGT:10**-14

 RADIAL INTEGRATION  - INTERVALS (POINTS,UPPER LIMIT):            1( 75,  4.0*R)

 ANGULAR INTEGRATION - INTERVALS (ACCURACY LEVEL [N. POINTS] UPPER LIMIT):
  1(  4[  86]   0.2)  2(  8[ 194]   0.5)  3( 12[ 350]   0.9)  4( 16[ 974]   3.5)
  5( 12[ 350]9999.0)
 TTTTTTTTTTTTTTTTTTTTTTTTTTTTTT INT_CALC    TELAPSE       11.84 TCPU        4.54
 EEEEEEEEEE INT_CALC TERMINATION  DATE 24 03 2018 TIME 20:33:44.6

 *******************************************************************************
 Generated by CrystalWriter                                                      
 CRYSTAL - SCF - TYPE OF CALCULATION :  UNRESTRICTED OPEN SHELL
 *******************************************************************************

 CAPPA:IS1  5;IS2  5;IS3  4; K PTS MONK NET  27; SYMMOPS:K SPACE   8;G SPACE   4

 TTTTTTTTTTTTTTTTTTTTTTTTTTTTTT SDIK        TELAPSE       13.07 TCPU        5.75

 AAAAAAAAAAAAAAAAAAAAAAAAAAAAAAAAAAAAAAAAAAAAAAAAAAAAAAAAAAAAAAAAAAAAAAAAAAAAAAA
         ATOMIC WAVEFUNCTION(S)


 NUCLEAR CHARGE 19.0  SYMMETRY SPECIES            S    P    D
 N. ELECTRONS   17.0  NUMBER OF PRIMITIVE GTOS   14    9    7
                      NUMBER OF CONTRACTED GTOS   4    3    3
                      NUMBER OF CLOSED SHELLS     1    1    0
                      OPEN SHELL OCCUPATION       0    0    9

  ZNUC SCFIT  TOTAL HF ENERGY   KINETIC ENERGY   VIRIAL THEOREM ACCURACY
  19.0  24   -1.953432393E+02  1.248337040E+02 -2.564827712E+00  3.3E-06

 NUCLEAR CHARGE  6.0  SYMMETRY SPECIES            S    P
 N. ELECTRONS    8.0  NUMBER OF PRIMITIVE GTOS   10    9
                      NUMBER OF CONTRACTED GTOS   3    3
                      NUMBER OF CLOSED SHELLS     1    1
                      OPEN SHELL OCCUPATION       0    0

  ZNUC SCFIT  TOTAL HF ENERGY   KINETIC ENERGY   VIRIAL THEOREM ACCURACY
   6.0  43   -1.519668598E+01  1.229882609E+01 -2.235620852E+00  4.1E-06

 AAAAAAAAAAAAAAAAAAAAAAAAAAAAAAAAAAAAAAAAAAAAAAAAAAAAAAAAAAAAAAAAAAAAAAAAAAAAAAA

 CHARGE NORMALIZATION FACTOR   1.00000000
 TOTAL ATOMIC CHARGES:
  17.0000000  17.0000000  17.0000000  17.0000000  17.0000000  17.0000000
  17.0000000  17.0000000   8.0000000   8.0000000   8.0000000   8.0000000
   8.0000000   8.0000000   8.0000000   8.0000000   8.0000000   8.0000000
   8.0000000   8.0000000   8.0000000   8.0000000   8.0000000   8.0000000
   0.0000000   0.0000000   0.0000000   0.0000000   0.0000000   0.0000000
   0.0000000   0.0000000
 SUMMED SPIN DENSITY          -0.00000000
 TOTAL ATOMIC SPINS  :
   1.0000000   1.0000000  -1.0000000  -1.0000000  -1.0000000   1.0000000
   1.0000000  -1.0000000   0.0000000   0.0000000   0.0000000   0.0000000
   0.0000000   0.0000000   0.0000000   0.0000000   0.0000000   0.0000000
   0.0000000   0.0000000   0.0000000   0.0000000   0.0000000   0.0000000
   0.0000000   0.0000000   0.0000000   0.0000000   0.0000000   0.0000000
   0.0000000   0.0000000
 TTTTTTTTTTTTTTTTTTTTTTTTTTTTTT MOQGAD      TELAPSE       13.45 TCPU        6.13
 TTTTTTTTTTTTTTTTTTTTTTTTTTTTTT SHELLXN     TELAPSE      396.69 TCPU      383.23
 TTTTTTTTTTTTTTTTTTTTTTTTTTTTTT MONMO3      TELAPSE      444.68 TCPU      431.20
 NUMERICALLY INTEGRATED DENSITY    132.0001145415    132.0001145415
 TTTTTTTTTTTTTTTTTTTTTTTTTTTTTT NUMDFT      TELAPSE      447.30 TCPU      433.82
 CYC   0 ETOT(AU) -1.841348157519E+03 DETOT -1.84E+03 tst  0.00E+00 PX  1.00E+00
 CYCLE  0 WAVE FUNCTION SAVED IN FORTRAN UNIT 79
 TTTTTTTTTTTTTTTTTTTTTTTTTTTTTT DIIS        TELAPSE      448.18 TCPU      434.65
 TTTTTTTTTTTTTTTTTTTTTTTTTTTTTT FDIK        TELAPSE      483.92 TCPU      470.17
 SPIN LOCKING: NO ENERGY GAP COMPUTED
 TTTTTTTTTTTTTTTTTTTTTTTTTTTTTT PDIG        TELAPSE      485.36 TCPU      471.61
 CHARGE NORMALIZATION FACTOR   1.00000000
 TOTAL ATOMIC CHARGES:
  18.2353516  18.2353506  18.2353514  18.2353506  18.2353506  18.2353510
  18.2353506  18.2353510   7.2810735   7.3332030   7.2810736   7.3332031
   7.3332018   7.2810732   7.3332017   7.2810731   7.3332030   7.2810731
   7.3332031   7.2810732   7.2810735   7.3332017   7.2810736   7.3332018
   0.1503734   0.1503733   0.1503734   0.1503733   0.1503733   0.1503734
   0.1503733   0.1503734
 SUMMED SPIN DENSITY           0.00000000
 TOTAL ATOMIC SPINS  :
   0.3225601   0.3225599  -0.3225601  -0.3225600  -0.3225600   0.3225601
   0.3225599  -0.3225602  -0.0000001   0.0530772   0.0000001  -0.0530772
  -0.0530771  -0.0000001   0.0530771   0.0000001   0.0530772   0.0000001
  -0.0530772  -0.0000001  -0.0000001   0.0530771   0.0000001  -0.0530771
  -0.0004274  -0.0004274   0.0004274   0.0004274   0.0004274  -0.0004274
  -0.0004274   0.0004274
 TTTTTTTTTTTTTTTTTTTTTTTTTTTTTT MOQGAD      TELAPSE      485.42 TCPU      471.67
 TTTTTTTTTTTTTTTTTTTTTTTTTTTTTT SHELLXN     TELAPSE      890.07 TCPU      874.94
 TTTTTTTTTTTTTTTTTTTTTTTTTTTTTT MONMO3      TELAPSE      945.53 TCPU      929.99
 NUMERICALLY INTEGRATED DENSITY    132.0000943275    132.0000943285
 TTTTTTTTTTTTTTTTTTTTTTTTTTTTTT NUMDFT      TELAPSE      953.11 TCPU      937.56
 CYC   1 ETOT(AU) -1.842284254617E+03 DETOT -9.36E-01 tst  0.00E+00 PX  1.00E+00
 CYCLE  1 WAVE FUNCTION SAVED IN FORTRAN UNIT 79
 TTTTTTTTTTTTTTTTTTTTTTTTTTTTTT DIIS        TELAPSE      955.74 TCPU      940.14
 DIIS TEST: 0.42290E+00 AT SCF   CYCLE   1 - MIX   90 %
 TTTTTTTTTTTTTTTTTTTTTTTTTTTTTT FDIK        TELAPSE      962.43 TCPU      946.80
 SPIN LOCKING: NO ENERGY GAP COMPUTED
 TTTTTTTTTTTTTTTTTTTTTTTTTTTTTT PDIG        TELAPSE      963.95 TCPU      948.32
 CHARGE NORMALIZATION FACTOR   1.00000000
 TOTAL ATOMIC CHARGES:
  18.1963646  18.1963118  18.1963710  18.1963185  18.1963185  18.1963640
  18.1963118  18.1963706   7.3033665   7.3481400   7.3033693   7.3481350
   7.3481341   7.3033662   7.3481392   7.3033688   7.3481400   7.3033688
   7.3481350   7.3033662   7.3033665   7.3481392   7.3033693   7.3481341
   0.1521554   0.1521533   0.1521544   0.1521526   0.1521525   0.1521554
   0.1521533   0.1521544
 SUMMED SPIN DENSITY           0.00000000
 TOTAL ATOMIC SPINS  :
   0.3494666   0.3494734  -0.3495589  -0.3495569  -0.3495569   0.3494660
   0.3494734  -0.3495592   0.0000153   0.0594491   0.0000173  -0.0593671
  -0.0593673   0.0000152   0.0594500   0.0000173   0.0594491   0.0000173
  -0.0593671   0.0000152   0.0000153   0.0594500   0.0000173  -0.0593673
  -0.0004584  -0.0004583   0.0004319   0.0004310   0.0004311  -0.0004584
  -0.0004583   0.0004319
 TTTTTTTTTTTTTTTTTTTTTTTTTTTTTT MOQGAD      TELAPSE      964.01 TCPU      948.37
 TTTTTTTTTTTTTTTTTTTTTTTTTTTTTT SHELLXN     TELAPSE     1373.05 TCPU     1352.23
 TTTTTTTTTTTTTTTTTTTTTTTTTTTTTT MONMO3      TELAPSE     1422.56 TCPU     1401.08
 NUMERICALLY INTEGRATED DENSITY    132.0000912006    132.0000912087
 TTTTTTTTTTTTTTTTTTTTTTTTTTTTTT NUMDFT      TELAPSE     1430.16 TCPU     1408.66
 CYC   2 ETOT(AU) -1.842318870249E+03 DETOT -3.46E-02 tst  2.49E-04 PX  3.41E-02
 CYCLE  2 WAVE FUNCTION SAVED IN FORTRAN UNIT 79
 TTTTTTTTTTTTTTTTTTTTTTTTTTTTTT DIIS        TELAPSE     1432.81 TCPU     1411.26
 DIIS TEST: 0.24967E+00 AT SCF   CYCLE   2 - DIIS ACTIVE - HISTORY:     2 CYCLES
 TTTTTTTTTTTTTTTTTTTTTTTTTTTTTT FDIK        TELAPSE     1439.20 TCPU     1417.55
 SPIN LOCKING: NO ENERGY GAP COMPUTED
 TTTTTTTTTTTTTTTTTTTTTTTTTTTTTT PDIG        TELAPSE     1440.80 TCPU     1419.11
 CHARGE NORMALIZATION FACTOR   1.00000000
 TOTAL ATOMIC CHARGES:
  18.0432143  18.0429885  18.0429616  18.0428361  18.0428361  18.0432135
  18.0429885  18.0429579   7.3767700   7.4113922   7.3767939   7.4114207
   7.4114194   7.3767714   7.4113932   7.3767965   7.4113922   7.3767965
   7.4114207   7.3767714   7.3767700   7.4113932   7.3767939   7.4114194
   0.1688482   0.1688292   0.1687880   0.1687796   0.1687790   0.1688482
   0.1688287   0.1687880
 SUMMED SPIN DENSITY           0.00000000
 TOTAL ATOMIC SPINS  :
   0.4776536   0.4776089  -0.4794141  -0.4794134  -0.4794134   0.4776515
   0.4776089  -0.4794202   0.0005629   0.1023007   0.0005384  -0.1016408
  -0.1016407   0.0005653   0.1023031   0.0005423   0.1023007   0.0005423
  -0.1016408   0.0005653   0.0005629   0.1023031   0.0005384  -0.1016407
  -0.0004324  -0.0004377   0.0004434   0.0004643   0.0004643  -0.0004324
  -0.0004367   0.0004434
 TTTTTTTTTTTTTTTTTTTTTTTTTTTTTT MOQGAD      TELAPSE     1440.90 TCPU     1419.22
 TTTTTTTTTTTTTTTTTTTTTTTTTTTTTT SHELLXN     TELAPSE     1847.47 TCPU     1822.68
 TTTTTTTTTTTTTTTTTTTTTTTTTTTTTT MONMO3      TELAPSE     1901.44 TCPU     1875.79
 NUMERICALLY INTEGRATED DENSITY    132.0000625266    132.0000626513
 TTTTTTTTTTTTTTTTTTTTTTTTTTTTTT NUMDFT      TELAPSE     1909.04 TCPU     1883.39
 CYC   3 ETOT(AU) -1.842415499883E+03 DETOT -9.66E-02 tst  6.91E-03 PX  1.99E-01
 CYCLE  3 WAVE FUNCTION SAVED IN FORTRAN UNIT 79
 TTTTTTTTTTTTTTTTTTTTTTTTTTTTTT DIIS        TELAPSE     1911.82 TCPU     1886.14
 DIIS TEST: 0.58636E-01 AT SCF   CYCLE   3 - DIIS ACTIVE - HISTORY:     3 CYCLES
 TTTTTTTTTTTTTTTTTTTTTTTTTTTTTT FDIK        TELAPSE     1918.94 TCPU     1892.84
 SPIN LOCKING: NO ENERGY GAP COMPUTED
 TTTTTTTTTTTTTTTTTTTTTTTTTTTTTT PDIG        TELAPSE     1920.73 TCPU     1894.45
 CHARGE NORMALIZATION FACTOR   1.00000000
 TOTAL ATOMIC CHARGES:
  18.0003386  18.0003274  18.0013499  18.0013298  18.0013298  18.0003311
  18.0003274  18.0013420   7.3980350   7.4391848   7.3980374   7.4393342
   7.4393368   7.3980398   7.4391880   7.3980428   7.4391848   7.3980428
   7.4393342   7.3980398   7.3980350   7.4391880   7.3980374   7.4393368
   0.1618691   0.1618702   0.1618595   0.1618661   0.1618645   0.1618691
   0.1618683   0.1618595
 SUMMED SPIN DENSITY           0.00000000
 TOTAL ATOMIC SPINS  :
   0.5599597   0.5599385  -0.5597171  -0.5597032  -0.5597032   0.5599640
   0.5599385  -0.5597150  -0.0001368   0.1100131  -0.0001148  -0.1100361
  -0.1100353  -0.0001358   0.1100103  -0.0001192   0.1100131  -0.0001192
  -0.1100361  -0.0001358  -0.0001368   0.1100103  -0.0001148  -0.1100353
  -0.0006761  -0.0006780   0.0007117   0.0007154   0.0007157  -0.0006761
  -0.0006773   0.0007117
 TTTTTTTTTTTTTTTTTTTTTTTTTTTTTT MOQGAD      TELAPSE     1920.81 TCPU     1894.50
 TTTTTTTTTTTTTTTTTTTTTTTTTTTTTT SHELLXN     TELAPSE     2328.06 TCPU     2298.59
 TTTTTTTTTTTTTTTTTTTTTTTTTTTTTT MONMO3      TELAPSE     2377.73 TCPU     2348.26
 NUMERICALLY INTEGRATED DENSITY    132.0000666883    132.0000667222
 TTTTTTTTTTTTTTTTTTTTTTTTTTTTTT NUMDFT      TELAPSE     2385.27 TCPU     2355.80
 CYC   4 ETOT(AU) -1.842435942648E+03 DETOT -2.04E-02 tst  3.16E-03 PX  1.03E-01
 CYCLE  4 WAVE FUNCTION SAVED IN FORTRAN UNIT 79
 TTTTTTTTTTTTTTTTTTTTTTTTTTTTTT DIIS        TELAPSE     2387.93 TCPU     2358.42
 DIIS TEST: 0.75669E-01 AT SCF   CYCLE   4 - DIIS ACTIVE - HISTORY:     4 CYCLES
 TTTTTTTTTTTTTTTTTTTTTTTTTTTTTT FDIK        TELAPSE     2394.18 TCPU     2364.64
 SPIN LOCKING: NO ENERGY GAP COMPUTED
 TTTTTTTTTTTTTTTTTTTTTTTTTTTTTT PDIG        TELAPSE     2395.61 TCPU     2366.08
 CHARGE NORMALIZATION FACTOR   1.00000000
 TOTAL ATOMIC CHARGES:
  18.0120233  18.0119426  18.0105501  18.0104943  18.0104943  18.0120205
  18.0119426  18.0105447   7.4007729   7.4223955   7.4007752   7.4222829
   7.4222845   7.4007761   7.4223960   7.4007800   7.4223955   7.4007800
   7.4222829   7.4007761   7.4007729   7.4223960   7.4007752   7.4222845
   0.1656436   0.1656425   0.1656211   0.1656233   0.1656232   0.1656436
   0.1656427   0.1656211
 SUMMED SPIN DENSITY           0.00000000
 TOTAL ATOMIC SPINS  :
   0.5865419   0.5865760  -0.5870926  -0.5871231  -0.5871231   0.5865456
   0.5865760  -0.5870963   0.0002302   0.1165250   0.0002202  -0.1164341
  -0.1164329   0.0002299   0.1165215   0.0002197   0.1165250   0.0002197
[...]
 TTTTTTTTTTTTTTTTTTTTTTTTTTTTTT DIIS        TELAPSE     6692.42 TCPU     6615.44
 DIIS TEST: 0.21222E-06 AT SCF   CYCLE  13 - DIIS ACTIVE - HISTORY:    13 CYCLES
 TTTTTTTTTTTTTTTTTTTTTTTTTTTTTT FDIK        TELAPSE     6698.76 TCPU     6621.75
 SPIN LOCKING: NO ENERGY GAP COMPUTED
 TTTTTTTTTTTTTTTTTTTTTTTTTTTTTT PDIG        TELAPSE     6700.19 TCPU     6623.18
 CHARGE NORMALIZATION FACTOR   1.00000000
 TOTAL ATOMIC CHARGES:
  18.0037115  18.0036699  18.0037118  18.0036708  18.0036708  18.0037108
  18.0036699  18.0037111   7.4037846   7.4266655   7.4037846   7.4266799
   7.4266784   7.4037843   7.4266641   7.4037843   7.4266655   7.4037843
   7.4266799   7.4037843   7.4037846   7.4266641   7.4037846   7.4266784
   0.1658529   0.1658528   0.1658526   0.1658526   0.1658526   0.1658529
   0.1658529   0.1658526
 SUMMED SPIN DENSITY           0.00000000
 TOTAL ATOMIC SPINS  :
   0.6341850   0.6342013  -0.6341857  -0.6342013  -0.6342013   0.6341850
   0.6342013  -0.6341858   0.0000026   0.1188937  -0.0000053  -0.1188907
  -0.1188908   0.0000025   0.1188937  -0.0000051   0.1188937  -0.0000051
  -0.1188907   0.0000025   0.0000026   0.1188937  -0.0000053  -0.1188908
  -0.0012467  -0.0012468   0.0012468   0.0012468   0.0012468  -0.0012467
  -0.0012468   0.0012468
 TTTTTTTTTTTTTTTTTTTTTTTTTTTTTT MOQGAD      TELAPSE     6700.25 TCPU     6623.24
 TTTTTTTTTTTTTTTTTTTTTTTTTTTTTT SHELLXN     TELAPSE     7105.28 TCPU     7026.65
 TTTTTTTTTTTTTTTTTTTTTTTTTTTTTT MONMO3      TELAPSE     7157.19 TCPU     7077.83
 NUMERICALLY INTEGRATED DENSITY    132.0000665430    132.0000665487
 TTTTTTTTTTTTTTTTTTTTTTTTTTTTTT NUMDFT      TELAPSE     7164.90 TCPU     7085.54
 CYC  14 ETOT(AU) -1.842454894296E+03 DETOT -1.11E-08 tst  2.07E-10 PX  3.59E-05
 CYCLE 14 WAVE FUNCTION SAVED IN FORTRAN UNIT 79
 TTTTTTTTTTTTTTTTTTTTTTTTTTTTTT DIIS        TELAPSE     7167.76 TCPU     7088.35
 DIIS TEST: 0.42402E-07 AT SCF   CYCLE  14 - DIIS ACTIVE - HISTORY:    14 CYCLES
 TTTTTTTTTTTTTTTTTTTTTTTTTTTTTT FDIK        TELAPSE     7174.33 TCPU     7094.87
 SPIN LOCKING: NO ENERGY GAP COMPUTED
 TTTTTTTTTTTTTTTTTTTTTTTTTTTTTT PDIG        TELAPSE     7175.76 TCPU     7096.31
 CHARGE NORMALIZATION FACTOR   1.00000000
 TOTAL ATOMIC CHARGES:
  18.0036880  18.0037070  18.0036710  18.0036909  18.0036909  18.0036874
  18.0037070  18.0036704   7.4037851   7.4266771   7.4037852   7.4266706
   7.4266692   7.4037848   7.4266756   7.4037848   7.4266771   7.4037848
   7.4266706   7.4037848   7.4037851   7.4266756   7.4037852   7.4266692
   0.1658541   0.1658540   0.1658516   0.1658516   0.1658516   0.1658541
   0.1658540   0.1658516
 SUMMED SPIN DENSITY           0.00000000
 TOTAL ATOMIC SPINS  :
   0.6342053   0.6341964  -0.6342070  -0.6341979  -0.6341979   0.6342054
   0.6341964  -0.6342072  -0.0000003   0.1188862   0.0000042  -0.1188886
  -0.1188886  -0.0000004   0.1188862   0.0000043   0.1188862   0.0000043
  -0.1188886  -0.0000004  -0.0000003   0.1188862   0.0000042  -0.1188886
  -0.0012468  -0.0012468   0.0012468   0.0012468   0.0012468  -0.0012468
  -0.0012468   0.0012468
 TTTTTTTTTTTTTTTTTTTTTTTTTTTTTT MOQGAD      TELAPSE     7175.82 TCPU     7096.37
mpiexec: killing job...

--------------------------------------------------------------------------
mpiexec noticed that process rank 0 with PID 104424 on node golub042 exited on signal 0 (Unknown signal 0).
--------------------------------------------------------------------------
mpiexec: clean termination accomplished

forrtl: error (78): process killed (SIGTERM)
Image              PC                Routine            Line        Source             
Pcrystal           0000000001F184B9  Unknown               Unknown  Unknown
Pcrystal           0000000001F16E30  Unknown               Unknown  Unknown
Pcrystal           0000000001EC7232  Unknown               Unknown  Unknown
Pcrystal           0000000001E74463  Unknown               Unknown  Unknown
Pcrystal           0000000001E79F89  Unknown               Unknown  Unknown
libpthread.so.0    00002BA1282327E0  Unknown               Unknown  Unknown
Pcrystal           0000000001214921  Unknown               Unknown  Unknown
Pcrystal           0000000000A779F6  Unknown               Unknown  Unknown
Pcrystal           000000000075D4CE  Unknown               Unknown  Unknown
Pcrystal           00000000005C43B5  Unknown               Unknown  Unknown
Pcrystal           0000000000A01FE8  Unknown               Unknown  Unknown
Pcrystal           00000000004610A6  Unknown               Unknown  Unknown
Pcrystal           00000000004605B6  Unknown               Unknown  Unknown
libc.so.6          00002BA12845ED1D  Unknown               Unknown  Unknown
Pcrystal           00000000004604A9  Unknown               Unknown  Unknown
forrtl: error (78): process killed (SIGTERM)
Image              PC                Routine            Line        Source             
Pcrystal           0000000001F184B9  Unknown               Unknown  Unknown
Pcrystal           0000000001F16E30  Unknown               Unknown  Unknown
Pcrystal           0000000001EC7232  Unknown               Unknown  Unknown
Pcrystal           0000000001E74463  Unknown               Unknown  Unknown
Pcrystal           0000000001E79F89  Unknown               Unknown  Unknown
libpthread.so.0    00002AB45AFE27E0  Unknown               Unknown  Unknown
Pcrystal           0000000000E3E2A0  Unknown               Unknown  Unknown
Pcrystal           00000000005C6CD4  Unknown               Unknown  Unknown
Pcrystal           00000000005C4263  Unknown               Unknown  Unknown
Pcrystal           0000000000A01FE8  Unknown               Unknown  Unknown
Pcrystal           00000000004610A6  Unknown               Unknown  Unknown
Pcrystal           00000000004605B6  Unknown               Unknown  Unknown
libc.so.6          00002AB45B20ED1D  Unknown               Unknown  Unknown
Pcrystal           00000000004604A9  Unknown               Unknown  Unknown
forrtl: error (78): process killed (SIGTERM)
Image              PC                Routine            Line        Source             
Pcrystal           0000000001F184B9  Unknown               Unknown  Unknown
Pcrystal           0000000001F16E30  Unknown               Unknown  Unknown
Pcrystal           0000000001EC7232  Unknown               Unknown  Unknown
Pcrystal           0000000001E74463  Unknown               Unknown  Unknown
Pcrystal           0000000001E79F89  Unknown               Unknown  Unknown
libpthread.so.0    00002ABACE61B7E0  Unknown               Unknown  Unknown
Pcrystal           0000000000775B1A  Unknown               Unknown  Unknown
Pcrystal           000000000075CB61  Unknown               Unknown  Unknown
Pcrystal           00000000005C4397  Unknown               Unknown  Unknown
Pcrystal           0000000000A01FE8  Unknown               Unknown  Unknown
Pcrystal           00000000004610A6  Unknown               Unknown  Unknown
Pcrystal           00000000004605B6  Unknown               Unknown  Unknown
libc.so.6          00002ABACE847D1D  Unknown               Unknown  Unknown
Pcrystal           00000000004604A9  Unknown               Unknown  Unknown
forrtl: error (78): process killed (SIGTERM)
Image              PC                Routine            Line        Source             
Pcrystal           0000000001F184B9  Unknown               Unknown  Unknown
Pcrystal           0000000001F16E30  Unknown               Unknown  Unknown
Pcrystal           0000000001EC7232  Unknown               Unknown  Unknown
Pcrystal           0000000001E74463  Unknown               Unknown  Unknown
Pcrystal           0000000001E79F89  Unknown               Unknown  Unknown
libpthread.so.0    00002B367D6577E0  Unknown               Unknown  Unknown
Pcrystal           0000000001214D51  Unknown               Unknown  Unknown
Pcrystal           000000000076DDB0  Unknown               Unknown  Unknown
Pcrystal           000000000075D56E  Unknown               Unknown  Unknown
Pcrystal           00000000005C43B5  Unknown               Unknown  Unknown
Pcrystal           0000000000A01FE8  Unknown               Unknown  Unknown
Pcrystal           00000000004610A6  Unknown               Unknown  Unknown
Pcrystal           00000000004605B6  Unknown               Unknown  Unknown
libc.so.6          00002B367D883D1D  Unknown               Unknown  Unknown
Pcrystal           00000000004604A9  Unknown               Unknown  Unknown
forrtl: error (78): process killed (SIGTERM)
Image              PC                Routine            Line        Source             
Pcrystal           0000000001F184B9  Unknown               Unknown  Unknown
Pcrystal           0000000001F16E30  Unknown               Unknown  Unknown
Pcrystal           0000000001EC7232  Unknown               Unknown  Unknown
Pcrystal           0000000001E74463  Unknown               Unknown  Unknown
Pcrystal           0000000001E79F89  Unknown               Unknown  Unknown
libpthread.so.0    00002AB928BC47E0  Unknown               Unknown  Unknown
Pcrystal           0000000000E6B6E1  Unknown               Unknown  Unknown
Pcrystal           000000000076DD4F  Unknown               Unknown  Unknown
Pcrystal           000000000075D56E  Unknown               Unknown  Unknown
Pcrystal           00000000005C43B5  Unknown               Unknown  Unknown
Pcrystal           0000000000A01FE8  Unknown               Unknown  Unknown
Pcrystal           00000000004610A6  Unknown               Unknown  Unknown
Pcrystal           00000000004605B6  Unknown               Unknown  Unknown
libc.so.6          00002AB928DF0D1D  Unknown               Unknown  Unknown
Pcrystal           00000000004604A9  Unknown               Unknown  Unknown
forrtl: error (78): process killed (SIGTERM)
Image              PC                Routine            Line        Source             
Pcrystal           0000000001F184B9  Unknown               Unknown  Unknown
Pcrystal           0000000001F16E30  Unknown               Unknown  Unknown
Pcrystal           0000000001EC7232  Unknown               Unknown  Unknown
Pcrystal           0000000001E74463  Unknown               Unknown  Unknown
Pcrystal           0000000001E79F89  Unknown               Unknown  Unknown
libpthread.so.0    00002B8695F0E7E0  Unknown               Unknown  Unknown
Pcrystal           0000000000E3E4FD  Unknown               Unknown  Unknown
Pcrystal           00000000005C6BDB  Unknown               Unknown  Unknown
Pcrystal           00000000005C4263  Unknown               Unknown  Unknown
Pcrystal           0000000000A01FE8  Unknown               Unknown  Unknown
Pcrystal           00000000004610A6  Unknown               Unknown  Unknown
Pcrystal           00000000004605B6  Unknown               Unknown  Unknown
libc.so.6          00002B869613AD1D  Unknown               Unknown  Unknown
Pcrystal           00000000004604A9  Unknown               Unknown  Unknown
forrtl: error (78): process killed (SIGTERM)
Image              PC                Routine            Line        Source             
Pcrystal           0000000001F184B9  Unknown               Unknown  Unknown
Pcrystal           0000000001F16E30  Unknown               Unknown  Unknown
Pcrystal           0000000001EC7232  Unknown               Unknown  Unknown
Pcrystal           0000000001E74463  Unknown               Unknown  Unknown
Pcrystal           0000000001E79F89  Unknown               Unknown  Unknown
libpthread.so.0    00002B760C8C97E0  Unknown               Unknown  Unknown
Pcrystal           000000000075C54E  Unknown               Unknown  Unknown
Pcrystal           00000000005C4397  Unknown               Unknown  Unknown
Pcrystal           0000000000A01FE8  Unknown               Unknown  Unknown
Pcrystal           00000000004610A6  Unknown               Unknown  Unknown
Pcrystal           00000000004605B6  Unknown               Unknown  Unknown
libc.so.6          00002B760CAF5D1D  Unknown               Unknown  Unknown
Pcrystal           00000000004604A9  Unknown               Unknown  Unknown
forrtl: error (78): process killed (SIGTERM)
Image              PC                Routine            Line        Source             
Pcrystal           0000000001F184B9  Unknown               Unknown  Unknown
Pcrystal           0000000001F16E30  Unknown               Unknown  Unknown
Pcrystal           0000000001EC7232  Unknown               Unknown  Unknown
Pcrystal           0000000001E74463  Unknown               Unknown  Unknown
Pcrystal           0000000001E79F89  Unknown               Unknown  Unknown
libpthread.so.0    00002B96DE8F87E0  Unknown               Unknown  Unknown
Pcrystal           0000000001214C1D  Unknown               Unknown  Unknown
Pcrystal           0000000000A77A88  Unknown               Unknown  Unknown
Pcrystal           000000000075CABE  Unknown               Unknown  Unknown
Pcrystal           00000000005C4397  Unknown               Unknown  Unknown
Pcrystal           0000000000A01FE8  Unknown               Unknown  Unknown
Pcrystal           00000000004610A6  Unknown               Unknown  Unknown
Pcrystal           00000000004605B6  Unknown               Unknown  Unknown
libc.so.6          00002B96DEB24D1D  Unknown               Unknown  Unknown
Pcrystal           00000000004604A9  Unknown               Unknown  Unknown
forrtl: error (78): process killed (SIGTERM)
Image              PC                Routine            Line        Source             
Pcrystal           0000000001F184B9  Unknown               Unknown  Unknown
Pcrystal           0000000001F16E30  Unknown               Unknown  Unknown
Pcrystal           0000000001EC7232  Unknown               Unknown  Unknown
Pcrystal           0000000001E74463  Unknown               Unknown  Unknown
Pcrystal           0000000001E79F89  Unknown               Unknown  Unknown
libpthread.so.0    00002AD024FB47E0  Unknown               Unknown  Unknown
Pcrystal           0000000001F18C2E  Unknown               Unknown  Unknown
forrtl: error (78): process killed (SIGTERM)
Image              PC                Routine            Line        Source             
Pcrystal           0000000001F184B9  Unknown               Unknown  Unknown
Pcrystal           0000000001F16E30  Unknown               Unknown  Unknown
Pcrystal           0000000001EC7232  Unknown               Unknown  Unknown
Pcrystal           0000000001E74463  Unknown               Unknown  Unknown
Pcrystal           0000000001E79F89  Unknown               Unknown  Unknown
libpthread.so.0    00002B2B8E6D97E0  Unknown               Unknown  Unknown
Pcrystal           0000000001214690  Unknown               Unknown  Unknown
Pcrystal           0000000000A77A5D  Unknown               Unknown  Unknown
Pcrystal           000000000075D4CE  Unknown               Unknown  Unknown
Pcrystal           00000000005C43B5  Unknown               Unknown  Unknown
Pcrystal           0000000000A01FE8  Unknown               Unknown  Unknown
Pcrystal           00000000004610A6  Unknown               Unknown  Unknown
Pcrystal           00000000004605B6  Unknown               Unknown  Unknown
libc.so.6          00002B2B8E905D1D  Unknown               Unknown  Unknown
Pcrystal           00000000004604A9  Unknown               Unknown  Unknown
forrtl: error (78): process killed (SIGTERM)
Image              PC                Routine            Line        Source             
Pcrystal           0000000001F184B9  Unknown               Unknown  Unknown
Pcrystal           0000000001F16E30  Unknown               Unknown  Unknown
Pcrystal           0000000001EC7232  Unknown               Unknown  Unknown
Pcrystal           0000000001E74463  Unknown               Unknown  Unknown
Pcrystal           0000000001E79F89  Unknown               Unknown  Unknown
libpthread.so.0    00002B3E0F4E27E0  Unknown               Unknown  Unknown
Pcrystal           0000000001214B44  Unknown               Unknown  Unknown
Pcrystal           0000000000775EDF  Unknown               Unknown  Unknown
Pcrystal           000000000075CB61  Unknown               Unknown  Unknown
Pcrystal           00000000005C4397  Unknown               Unknown  Unknown
Pcrystal           0000000000A01FE8  Unknown               Unknown  Unknown
Pcrystal           00000000004610A6  Unknown               Unknown  Unknown
Pcrystal           00000000004605B6  Unknown               Unknown  Unknown
libc.so.6          00002B3E0F70ED1D  Unknown               Unknown  Unknown
Pcrystal           00000000004604A9  Unknown               Unknown  Unknown
forrtl: error (78): process killed (SIGTERM)
Image              PC                Routine            Line        Source             
Pcrystal           0000000001F184B9  Unknown               Unknown  Unknown
Pcrystal           0000000001F16E30  Unknown               Unknown  Unknown
Pcrystal           0000000001EC7232  Unknown               Unknown  Unknown
Pcrystal           0000000001E74463  Unknown               Unknown  Unknown
Pcrystal           0000000001E79F89  Unknown               Unknown  Unknown
libpthread.so.0    00002AE4CD8A07E0  Unknown               Unknown  Unknown
Pcrystal           0000000000A76F4D  Unknown               Unknown  Unknown
Pcrystal           000000000075D4CE  Unknown               Unknown  Unknown
Pcrystal           00000000005C43B5  Unknown               Unknown  Unknown
Pcrystal           0000000000A01FE8  Unknown               Unknown  Unknown
Pcrystal           00000000004610A6  Unknown               Unknown  Unknown
Pcrystal           00000000004605B6  Unknown               Unknown  Unknown
libc.so.6          00002AE4CDACCD1D  Unknown               Unknown  Unknown
Pcrystal           00000000004604A9  Unknown               Unknown  Unknown
forrtl: error (78): process killed (SIGTERM)
Image              PC                Routine            Line        Source             
Pcrystal           0000000001F184B9  Unknown               Unknown  Unknown
Pcrystal           0000000001F16E30  Unknown               Unknown  Unknown
Pcrystal           0000000001EC7232  Unknown               Unknown  Unknown
Pcrystal           0000000001E74463  Unknown               Unknown  Unknown
Pcrystal           0000000001E79F89  Unknown               Unknown  Unknown
libpthread.so.0    00002B3CAB2197E0  Unknown               Unknown  Unknown
Pcrystal           0000000000E3E209  Unknown               Unknown  Unknown
Pcrystal           00000000005C6BDB  Unknown               Unknown  Unknown
Pcrystal           00000000005C4263  Unknown               Unknown  Unknown
Pcrystal           0000000000A01FE8  Unknown               Unknown  Unknown
Pcrystal           00000000004610A6  Unknown               Unknown  Unknown
Pcrystal           00000000004605B6  Unknown               Unknown  Unknown
libc.so.6          00002B3CAB445D1D  Unknown               Unknown  Unknown
Pcrystal           00000000004604A9  Unknown               Unknown  Unknown
forrtl: error (78): process killed (SIGTERM)
Image              PC                Routine            Line        Source             
Pcrystal           0000000001F184B9  Unknown               Unknown  Unknown
Pcrystal           0000000001F16E30  Unknown               Unknown  Unknown
Pcrystal           0000000001EC7232  Unknown               Unknown  Unknown
Pcrystal           0000000001E74463  Unknown               Unknown  Unknown
Pcrystal           0000000001E79F89  Unknown               Unknown  Unknown
libpthread.so.0    00002B29BCE837E0  Unknown               Unknown  Unknown
Pcrystal           00000000005C4074  Unknown               Unknown  Unknown
Pcrystal           0000000000A01FE8  Unknown               Unknown  Unknown
Pcrystal           00000000004610A6  Unknown               Unknown  Unknown
Pcrystal           00000000004605B6  Unknown               Unknown  Unknown
libc.so.6          00002B29BD0AFD1D  Unknown               Unknown  Unknown
Pcrystal           00000000004604A9  Unknown               Unknown  Unknown
16 total processes killed (some possibly by mpiexec during cleanup)
