--------------------------------------------------------------------------
WARNING: No preset parameters were found for the device that Open MPI
detected:

  Local host:            golub109
  Device name:           mlx4_0
  Device vendor ID:      0x02c9
  Device vendor part ID: 4099

Default device parameters will be used, which may result in lower
performance.  You can edit any of the files specified by the
btl_openib_device_param_files MCA parameter to set values for your
device.

NOTE: You can turn off this warning by setting the MCA parameter
      btl_openib_warn_no_device_params_found to 0.
--------------------------------------------------------------------------
 PROCESS            6  OF           16  WORKING
 PROCESS           14  OF           16  WORKING
 PROCESS            5  OF           16  WORKING
 PROCESS            3  OF           16  WORKING
 PROCESS            0  OF           16  WORKING
 PROCESS            1  OF           16  WORKING
 PROCESS            7  OF           16  WORKING
 PROCESS            8  OF           16  WORKING
 PROCESS            2  OF           16  WORKING
 PROCESS           12  OF           16  WORKING
 PROCESS           11  OF           16  WORKING
 PROCESS           15  OF           16  WORKING
 PROCESS            4  OF           16  WORKING
 PROCESS           10  OF           16  WORKING
 PROCESS            9  OF           16  WORKING
 PROCESS           13  OF           16  WORKING

         
 *******************************************************************************
 *                                                                             *
 *                               CRYSTAL17                                     *
 *                      public : 1.0.1 - Jun 21st, 2017                        *
 *                       HTTP://WWW.CRYSTAL.UNITO.IT                           *
 *                                                                             *
 *                              MAIN AUTHORS                                   *
 *                                                                             *
 *  R. DOVESI(1,11), V.R. SAUNDERS(2), C. ROETTI(1,11), R. ORLANDO(1,11),      *
 *  C.M. ZICOVICH-WILSON(1,3), F. PASCALE(4), B. CIVALLERI(1,11),              *
 *  K. DOLL(5), N.M. HARRISON(2,6), I.J. BUSH(7), Ph. D'ARCO(8),               *
 *  M. LLUNELL(9), M. CAUSA'(10), Y. NOEL(8), L. MASCHIO(1,11), A. ERBA(1,11)  *
 *  M. RE'RAT(14), S. CASASSA(1,11)                                            *
 *                                                                             *
 *        CONTRIBUTIONS TO THE CODE HAVE ALSO BEEN GIVEN BY                    *
 *                                                                             *
 *  M. FERRABONE(1,11), M. DE LA PIERRE(1,11), M. FERRERO(1,11),               *
 *  J. BAIMA(1,11), E. ALBANESE(1,11), M.F. PEINTINGER(12), R. BAST(13),       *
 *  B. KIRTMAN(15), V. LACIVITA(1,11), R. DEMICHELIS(1,16)                     *
 *  G. BRANDEBURG(17), S. SALUSTRO(1,11), G. SANSONE(1,11)                     *
 *  M.T. RUGGIERO(18)                                                          *
 *                                                                             *
 * (1) THEORETICAL CHEMISTRY GROUP - UNIVERSITA' DI TORINO - TORINO (ITALY)    *

 * (2) COMPUTATIONAL SCIENCE & ENGINEERING DEPARTMENT - STFC DARESBURY (UK)    *
 * (3) UNIVERSIDAD AUTONOMA DEL ESTADO DE MORELOS - CUERNAVACA (MEXICO)        *
 * (4) UNIVERSITE' DE LORRAINE - NANCY (FRANCE)                                *
 * (5) UNIVERSITAET STUTTGART- STUTTGART (GERMANY)                             *
 * (6) IMPERIAL COLLEGE - LONDON (UK)                                          *
 * (7) OXFORD E-RESEARCH CENTRE - OXFORD (UK)                                  *
 * (8) UPMC - SORBONNE UNIVERSITES - PARIS (FRANCE)                            *
 * (9) UNIVERSIDAD DE BARCELONA - BARCELONA (SPAIN)                            *
 *(10) UNIVERSITA' DI NAPOLI "FEDERICO II" - NAPOLI (ITALY)                    *
 *(11) NIS - NANOSTRUCTURED INTERFACES AND SURFACES - TORINO (ITALY)           *
 *(12) MPI FUER CHEMISCHE ENERGIEKONVERSION - MUELHEIM AN DER RUHR (GERMANY)   *
 *(13) UNIVERSITY OF TROMSO - TROMSO (NORWAY)                                  *
 *(14) UNIVERSITE' DE PAU ET DES PAYS DE L'ADOUR - PAU (FRANCE)                *
 *(15) UNIVERSITY OF CALIFORNIA SANTA BARBARA - SANTA BARBARA (USA)            *
 *(16) CURTIN UNIVERSITY - PERTH (AUSTRALIA)                                   *
 *(17) UNIVERSITY COLLEGE LONDON - LONDON (UK)                                 *
 *(18) CAMBRIDGE UNIVERSITY - CAMBRIDGE (UK)                                   *
 *                                                                             *
 *******************************************************************************
 EEEEEEEEEE STARTING  DATE 24 03 2018 TIME 20:45:11.7
 Generated by CrystalWriter                                                      

 CRYSTAL CALCULATION
 (INPUT ACCORDING TO THE INTERNATIONAL TABLES FOR X-RAY CRYSTALLOGRAPHY)
 CRYSTAL FAMILY                       :  TETRAGONAL  
 CRYSTAL CLASS  (GROTH - 1921)        :  DITETRAGONAL DIPYRAMIDAL             

 SPACE GROUP (CENTROSYMMETRIC)        :  P 4/M M M       

 LATTICE PARAMETERS  (ANGSTROMS AND DEGREES) - CONVENTIONAL CELL
        A           B           C        ALPHA        BETA       GAMMA
     3.92785     3.92785     3.43380    90.00000    90.00000    90.00000


 NUMBER OF IRREDUCIBLE ATOMS IN THE CONVENTIONAL CELL:    4

 INPUT COORDINATES

 ATOM AT. N.              COORDINATES
   1 229     0.000000000000E+00  0.000000000000E+00  0.000000000000E+00
   2 208     0.000000000000E+00  5.000000000000E-01  0.000000000000E+00
   3 208     5.000000000000E-01  0.000000000000E+00  0.000000000000E+00
   4 238     5.000000000000E-01  5.000000000000E-01  5.000000000000E-01

 *******************************************************************************

 << INFORMATION >>: FROM NOW ON, ALL COORDINATES REFER TO THE PRIMITIVE CELL

 *******************************************************************************

 LATTICE PARAMETERS  (ANGSTROMS AND DEGREES) - PRIMITIVE CELL
       A          B          C        ALPHA      BETA     GAMMA        VOLUME
    3.92785    3.92785    3.43380    90.00000  90.00000  90.00000     52.976686

 INPUT LIST - ATOM N.   3 NOT IRREDUCIBLE

 COORDINATES OF THE EQUIVALENT ATOMS (FRACTIONAL UNITS)

 N. ATOM EQUIV AT. N.          X                  Y                  Z

   1   1   1  229 CU    0.00000000000E+00  0.00000000000E+00  0.00000000000E+00

   2   2   1  208 O     0.00000000000E+00 -5.00000000000E-01  0.00000000000E+00
   3   2   2  208 O     5.00000000000E-01  0.00000000000E+00  0.00000000000E+00


 NUMBER OF SYMMETRY OPERATORS         :   16
 *******************************************************************************
 * GEOMETRY EDITING - INPUT COORDINATES ARE GIVEN IN ANGSTROM         
 *******************************************************************************

 GEOMETRY NOW FULLY CONSISTENT WITH THE GROUP

 NO SYMMOPS WITH FINITE TRANSLATIONAL COMPONENT

 *******************************************************************************
 * SUPERCELL OPTION
 *******************************************************************************

 INFORMATION **** GEXPAD **** SUPERCELL VOLUME NEGATIVE ? - SIGN OF EXPANSION MATRIX REVERSED

        EXPANSION MATRIX OF PRIMITIVE CELL
 E1    -2.000    -2.000     0.000
 E2     2.000    -2.000     0.000
 E3     0.000     0.000     1.000

 NUMBER OF ATOMS PER SUPERCELL    32

        DIRECT LATTICE VECTORS COMPONENTS (ANGSTROM)
 B1    -7.856    -7.856     0.000
 B2     7.856    -7.856     0.000
 B3     0.000     0.000     3.434

 LATTICE PARAMETERS  (ANGSTROM AND DEGREES)
       A          B          C         ALPHA     BETA     GAMMA        VOLUME
   11.10964   11.10964    3.43380    90.00000  90.00000  90.00000    423.813486


 **** ATOMS BELONGING TO THE SUPERCELL
 LABEL AT.NO.      COORDINATES (ANGSTROM AND FRACTIONAL)
     1   229     7.8557     0.0000     0.0000    -0.5000     0.5000     0.0000
     2   229     0.0000    -3.9278     0.0000     0.2500     0.2500     0.0000
     3   229     0.0000     0.0000     0.0000     0.0000     0.0000     0.0000
     4   229     0.0000     3.9278     0.0000    -0.2500    -0.2500     0.0000
     5   229    -3.9279     0.0000     0.0000     0.2500    -0.2500     0.0000
     6   229     3.9278    -3.9278     0.0000     0.0000     0.5000     0.0000
     7   229     3.9278     0.0000     0.0000    -0.2500     0.2500     0.0000
     8   229     3.9278     3.9278     0.0000    -0.5000     0.0000     0.0000
     9   208    -0.0000     5.8918     0.0000    -0.3750    -0.3750     0.0000
    10   208    -0.0000    -5.8918     0.0000     0.3750     0.3750     0.0000
    11   208     0.0000    -1.9639     0.0000     0.1250     0.1250     0.0000
    12   208     0.0000     1.9639     0.0000    -0.1250    -0.1250     0.0000
    13   208    -3.9279    -1.9639     0.0000     0.3750    -0.1250     0.0000
    14   208    -3.9279     1.9639     0.0000     0.1250    -0.3750     0.0000
    15   208     3.9278    -1.9639     0.0000    -0.1250     0.3750     0.0000
    16   208     3.9278     1.9639     0.0000    -0.3750     0.1250     0.0000
    17   208     5.8918     0.0000     0.0000    -0.3750     0.3750     0.0000
    18   208    -1.9639    -3.9278     0.0000     0.3750     0.1250     0.0000
    19   208    -1.9639     0.0000     0.0000     0.1250    -0.1250     0.0000
    20   208    -1.9639     3.9278     0.0000    -0.1250    -0.3750     0.0000
    21   208    -5.8918     0.0000     0.0000     0.3750    -0.3750     0.0000
    22   208     1.9639    -3.9278     0.0000     0.1250     0.3750     0.0000
    23   208     1.9639     0.0000     0.0000    -0.1250     0.1250     0.0000
    24   208     1.9639     3.9278     0.0000    -0.3750    -0.1250     0.0000
    25   238     5.8918    -1.9639     1.7169    -0.2500     0.5000     0.5000
    26   238     5.8918     1.9639     1.7169    -0.5000     0.2500     0.5000
    27   238    -1.9639    -1.9639     1.7169     0.2500     0.0000     0.5000
    28   238    -1.9639     1.9639     1.7169     0.0000    -0.2500     0.5000
    29   238     1.9639     5.8918     1.7169    -0.5000    -0.2500     0.5000
    30   238     1.9639    -5.8918     1.7169     0.2500     0.5000     0.5000
    31   238     1.9639    -1.9639     1.7169     0.0000     0.2500     0.5000
    32   238     1.9639     1.9639     1.7169    -0.2500     0.0000     0.5000

 **************************** SUPERCELL GENERATED ****************************
 *********************************************************************
                        ATOMIC SITE SYMMETRIES
 *********************************************************************


 ATOM   1 ATOMIC NUMBER 229 - NUMBER OF SYMMOPS WHICH DO NOT MOVE THE ATOM  16
 SEQUENCE NUMBERS OF THE SYMMOPS
    1    2    3    4    5    6    7    8    9   10   11   12   13   14   15
   16
 NO EQUIVALENT ATOMS


 ATOM   2 ATOMIC NUMBER 229 - NUMBER OF SYMMOPS WHICH DO NOT MOVE THE ATOM   4
 SEQUENCE NUMBERS OF THE SYMMOPS
    1    4   10   11
 NUMBER OF ATOMS EQUIVALENT BY SYMMETRY    3
 SEQUENCE NUMBERS OF THESE ATOMS
    4    7    5
 SEQUENCE NUMBERS OF THE CORRESPONDING SYMMOPS
    2    5    6


 ATOM   3 ATOMIC NUMBER 229 - NUMBER OF SYMMOPS WHICH DO NOT MOVE THE ATOM  16
 SEQUENCE NUMBERS OF THE SYMMOPS
    1    2    3    4    5    6    7    8    9   10   11   12   13   14   15
   16
 NO EQUIVALENT ATOMS


 ATOM   4 ATOMIC NUMBER 229 - NUMBER OF SYMMOPS WHICH DO NOT MOVE THE ATOM   4
 SEQUENCE NUMBERS OF THE SYMMOPS
    1    4   10   11
 NUMBER OF ATOMS EQUIVALENT BY SYMMETRY    3
 SEQUENCE NUMBERS OF THESE ATOMS
    2    5    7
 SEQUENCE NUMBERS OF THE CORRESPONDING SYMMOPS
    2    5    6


 ATOM   5 ATOMIC NUMBER 229 - NUMBER OF SYMMOPS WHICH DO NOT MOVE THE ATOM   4
 SEQUENCE NUMBERS OF THE SYMMOPS
    1    3   10   12
 NUMBER OF ATOMS EQUIVALENT BY SYMMETRY    3
 SEQUENCE NUMBERS OF THESE ATOMS
    7    4    2
 SEQUENCE NUMBERS OF THE CORRESPONDING SYMMOPS
    2    5    6


 ATOM   6 ATOMIC NUMBER 229 - NUMBER OF SYMMOPS WHICH DO NOT MOVE THE ATOM   8
 SEQUENCE NUMBERS OF THE SYMMOPS
    1    2    5    6    9   10   13   14
 NUMBER OF ATOMS EQUIVALENT BY SYMMETRY    1
 SEQUENCE NUMBERS OF THESE ATOMS
    8
 SEQUENCE NUMBERS OF THE CORRESPONDING SYMMOPS
    3


 ATOM   7 ATOMIC NUMBER 229 - NUMBER OF SYMMOPS WHICH DO NOT MOVE THE ATOM   4
 SEQUENCE NUMBERS OF THE SYMMOPS
    1    3   10   12
 NUMBER OF ATOMS EQUIVALENT BY SYMMETRY    3
 SEQUENCE NUMBERS OF THESE ATOMS
    5    2    4
 SEQUENCE NUMBERS OF THE CORRESPONDING SYMMOPS
    2    5    6


 ATOM   8 ATOMIC NUMBER 229 - NUMBER OF SYMMOPS WHICH DO NOT MOVE THE ATOM   8
 SEQUENCE NUMBERS OF THE SYMMOPS
    1    2    5    6    9   10   13   14
 NUMBER OF ATOMS EQUIVALENT BY SYMMETRY    1
 SEQUENCE NUMBERS OF THESE ATOMS
    6
 SEQUENCE NUMBERS OF THE CORRESPONDING SYMMOPS
    3


 ATOM   9 ATOMIC NUMBER 208 - NUMBER OF SYMMOPS WHICH DO NOT MOVE THE ATOM   4
 SEQUENCE NUMBERS OF THE SYMMOPS
    1    4   10   11
 NUMBER OF ATOMS EQUIVALENT BY SYMMETRY    3
 SEQUENCE NUMBERS OF THESE ATOMS
   10   21   17
 SEQUENCE NUMBERS OF THE CORRESPONDING SYMMOPS
    2    5    6


 ATOM  10 ATOMIC NUMBER 208 - NUMBER OF SYMMOPS WHICH DO NOT MOVE THE ATOM   4
 SEQUENCE NUMBERS OF THE SYMMOPS
    1    4   10   11
 NUMBER OF ATOMS EQUIVALENT BY SYMMETRY    3
 SEQUENCE NUMBERS OF THESE ATOMS
    9   17   21
 SEQUENCE NUMBERS OF THE CORRESPONDING SYMMOPS
    2    5    6


 ATOM  11 ATOMIC NUMBER 208 - NUMBER OF SYMMOPS WHICH DO NOT MOVE THE ATOM   4
 SEQUENCE NUMBERS OF THE SYMMOPS
    1    4   10   11
 NUMBER OF ATOMS EQUIVALENT BY SYMMETRY    3
 SEQUENCE NUMBERS OF THESE ATOMS
   12   23   19
 SEQUENCE NUMBERS OF THE CORRESPONDING SYMMOPS
    2    5    6


 ATOM  12 ATOMIC NUMBER 208 - NUMBER OF SYMMOPS WHICH DO NOT MOVE THE ATOM   4
 SEQUENCE NUMBERS OF THE SYMMOPS
    1    4   10   11
 NUMBER OF ATOMS EQUIVALENT BY SYMMETRY    3
 SEQUENCE NUMBERS OF THESE ATOMS
   11   19   23
 SEQUENCE NUMBERS OF THE CORRESPONDING SYMMOPS
    2    5    6


 ATOM  13 ATOMIC NUMBER 208 - NUMBER OF SYMMOPS WHICH DO NOT MOVE THE ATOM   2
 SEQUENCE NUMBERS OF THE SYMMOPS
    1   10
 NUMBER OF ATOMS EQUIVALENT BY SYMMETRY    7
 SEQUENCE NUMBERS OF THESE ATOMS
   16   14   15   24   18   20   22
 SEQUENCE NUMBERS OF THE CORRESPONDING SYMMOPS
    2    3    4    5    6    7    8


 ATOM  14 ATOMIC NUMBER 208 - NUMBER OF SYMMOPS WHICH DO NOT MOVE THE ATOM   2
 SEQUENCE NUMBERS OF THE SYMMOPS
    1   10
 NUMBER OF ATOMS EQUIVALENT BY SYMMETRY    7
 SEQUENCE NUMBERS OF THESE ATOMS
   15   13   16   20   22   24   18
 SEQUENCE NUMBERS OF THE CORRESPONDING SYMMOPS
    2    3    4    5    6    7    8


 ATOM  15 ATOMIC NUMBER 208 - NUMBER OF SYMMOPS WHICH DO NOT MOVE THE ATOM   2
 SEQUENCE NUMBERS OF THE SYMMOPS
    1   10
 NUMBER OF ATOMS EQUIVALENT BY SYMMETRY    7
 SEQUENCE NUMBERS OF THESE ATOMS
   14   16   13   22   20   18   24
 SEQUENCE NUMBERS OF THE CORRESPONDING SYMMOPS
    2    3    4    5    6    7    8


 ATOM  16 ATOMIC NUMBER 208 - NUMBER OF SYMMOPS WHICH DO NOT MOVE THE ATOM   2
 SEQUENCE NUMBERS OF THE SYMMOPS
    1   10
 NUMBER OF ATOMS EQUIVALENT BY SYMMETRY    7
 SEQUENCE NUMBERS OF THESE ATOMS
   13   15   14   18   24   22   20
 SEQUENCE NUMBERS OF THE CORRESPONDING SYMMOPS
    2    3    4    5    6    7    8


 ATOM  17 ATOMIC NUMBER 208 - NUMBER OF SYMMOPS WHICH DO NOT MOVE THE ATOM   4
 SEQUENCE NUMBERS OF THE SYMMOPS
    1    3   10   12
 NUMBER OF ATOMS EQUIVALENT BY SYMMETRY    3
 SEQUENCE NUMBERS OF THESE ATOMS
   21   10    9
 SEQUENCE NUMBERS OF THE CORRESPONDING SYMMOPS
    2    5    6


 ATOM  18 ATOMIC NUMBER 208 - NUMBER OF SYMMOPS WHICH DO NOT MOVE THE ATOM   2
 SEQUENCE NUMBERS OF THE SYMMOPS
    1   10
 NUMBER OF ATOMS EQUIVALENT BY SYMMETRY    7
 SEQUENCE NUMBERS OF THESE ATOMS
   24   20   22   16   13   14   15
 SEQUENCE NUMBERS OF THE CORRESPONDING SYMMOPS
    2    3    4    5    6    7    8


 ATOM  19 ATOMIC NUMBER 208 - NUMBER OF SYMMOPS WHICH DO NOT MOVE THE ATOM   4
 SEQUENCE NUMBERS OF THE SYMMOPS
    1    3   10   12
 NUMBER OF ATOMS EQUIVALENT BY SYMMETRY    3
 SEQUENCE NUMBERS OF THESE ATOMS
   23   12   11
 SEQUENCE NUMBERS OF THE CORRESPONDING SYMMOPS
    2    5    6


 ATOM  20 ATOMIC NUMBER 208 - NUMBER OF SYMMOPS WHICH DO NOT MOVE THE ATOM   2
 SEQUENCE NUMBERS OF THE SYMMOPS
    1   10
 NUMBER OF ATOMS EQUIVALENT BY SYMMETRY    7
 SEQUENCE NUMBERS OF THESE ATOMS
   22   18   24   14   15   16   13
 SEQUENCE NUMBERS OF THE CORRESPONDING SYMMOPS
    2    3    4    5    6    7    8


 ATOM  21 ATOMIC NUMBER 208 - NUMBER OF SYMMOPS WHICH DO NOT MOVE THE ATOM   4
 SEQUENCE NUMBERS OF THE SYMMOPS
    1    3   10   12
 NUMBER OF ATOMS EQUIVALENT BY SYMMETRY    3
 SEQUENCE NUMBERS OF THESE ATOMS
   17    9   10
 SEQUENCE NUMBERS OF THE CORRESPONDING SYMMOPS
    2    5    6


 ATOM  22 ATOMIC NUMBER 208 - NUMBER OF SYMMOPS WHICH DO NOT MOVE THE ATOM   2
 SEQUENCE NUMBERS OF THE SYMMOPS
    1   10
 NUMBER OF ATOMS EQUIVALENT BY SYMMETRY    7
 SEQUENCE NUMBERS OF THESE ATOMS
   20   24   18   15   14   13   16
 SEQUENCE NUMBERS OF THE CORRESPONDING SYMMOPS
    2    3    4    5    6    7    8


 ATOM  23 ATOMIC NUMBER 208 - NUMBER OF SYMMOPS WHICH DO NOT MOVE THE ATOM   4
 SEQUENCE NUMBERS OF THE SYMMOPS
    1    3   10   12
 NUMBER OF ATOMS EQUIVALENT BY SYMMETRY    3
 SEQUENCE NUMBERS OF THESE ATOMS
   19   11   12
 SEQUENCE NUMBERS OF THE CORRESPONDING SYMMOPS
    2    5    6


 ATOM  24 ATOMIC NUMBER 208 - NUMBER OF SYMMOPS WHICH DO NOT MOVE THE ATOM   2
 SEQUENCE NUMBERS OF THE SYMMOPS
    1   10
 NUMBER OF ATOMS EQUIVALENT BY SYMMETRY    7
 SEQUENCE NUMBERS OF THESE ATOMS
   18   22   20   13   16   15   14
 SEQUENCE NUMBERS OF THE CORRESPONDING SYMMOPS
    2    3    4    5    6    7    8


 ATOM  25 ATOMIC NUMBER 238 - NUMBER OF SYMMOPS WHICH DO NOT MOVE THE ATOM   4
 SEQUENCE NUMBERS OF THE SYMMOPS
    1    6   10   13
 NUMBER OF ATOMS EQUIVALENT BY SYMMETRY    3
 SEQUENCE NUMBERS OF THESE ATOMS
   30   26   29
 SEQUENCE NUMBERS OF THE CORRESPONDING SYMMOPS
    2    3    4


 ATOM  26 ATOMIC NUMBER 238 - NUMBER OF SYMMOPS WHICH DO NOT MOVE THE ATOM   4
 SEQUENCE NUMBERS OF THE SYMMOPS
    1    5   10   14
 NUMBER OF ATOMS EQUIVALENT BY SYMMETRY    3
 SEQUENCE NUMBERS OF THESE ATOMS
   29   25   30
 SEQUENCE NUMBERS OF THE CORRESPONDING SYMMOPS
    2    3    4


 ATOM  27 ATOMIC NUMBER 238 - NUMBER OF SYMMOPS WHICH DO NOT MOVE THE ATOM   4
 SEQUENCE NUMBERS OF THE SYMMOPS
    1    6   10   13
 NUMBER OF ATOMS EQUIVALENT BY SYMMETRY    3
 SEQUENCE NUMBERS OF THESE ATOMS
   32   28   31
 SEQUENCE NUMBERS OF THE CORRESPONDING SYMMOPS
    2    3    4


 ATOM  28 ATOMIC NUMBER 238 - NUMBER OF SYMMOPS WHICH DO NOT MOVE THE ATOM   4
 SEQUENCE NUMBERS OF THE SYMMOPS
    1    5   10   14
 NUMBER OF ATOMS EQUIVALENT BY SYMMETRY    3
 SEQUENCE NUMBERS OF THESE ATOMS
   31   27   32
 SEQUENCE NUMBERS OF THE CORRESPONDING SYMMOPS
    2    3    4


 ATOM  29 ATOMIC NUMBER 238 - NUMBER OF SYMMOPS WHICH DO NOT MOVE THE ATOM   4
 SEQUENCE NUMBERS OF THE SYMMOPS
    1    5   10   14
 NUMBER OF ATOMS EQUIVALENT BY SYMMETRY    3
 SEQUENCE NUMBERS OF THESE ATOMS
   26   30   25
 SEQUENCE NUMBERS OF THE CORRESPONDING SYMMOPS
    2    3    4


 ATOM  30 ATOMIC NUMBER 238 - NUMBER OF SYMMOPS WHICH DO NOT MOVE THE ATOM   4
 SEQUENCE NUMBERS OF THE SYMMOPS
    1    6   10   13
 NUMBER OF ATOMS EQUIVALENT BY SYMMETRY    3
 SEQUENCE NUMBERS OF THESE ATOMS
   25   29   26
 SEQUENCE NUMBERS OF THE CORRESPONDING SYMMOPS
    2    3    4


 ATOM  31 ATOMIC NUMBER 238 - NUMBER OF SYMMOPS WHICH DO NOT MOVE THE ATOM   4
 SEQUENCE NUMBERS OF THE SYMMOPS
    1    5   10   14
 NUMBER OF ATOMS EQUIVALENT BY SYMMETRY    3
 SEQUENCE NUMBERS OF THESE ATOMS
   28   32   27
 SEQUENCE NUMBERS OF THE CORRESPONDING SYMMOPS
    2    3    4


 ATOM  32 ATOMIC NUMBER 238 - NUMBER OF SYMMOPS WHICH DO NOT MOVE THE ATOM   4
 SEQUENCE NUMBERS OF THE SYMMOPS
    1    6   10   13
 NUMBER OF ATOMS EQUIVALENT BY SYMMETRY    3
 SEQUENCE NUMBERS OF THESE ATOMS
   27   31   28
 SEQUENCE NUMBERS OF THE CORRESPONDING SYMMOPS
    2    3    4

 *****   16 SYMMOPS - TRANSLATORS IN ANGSTROM
 ***** MATRICES AND TRANSLATORS IN THE CARTESIAN REFERENCE FRAME

 ORDER   : ORDER OF THE OPERATOR

 TRANSLA : REAL TRANSLATION (WITHOUT ORIGIN SHIFT) IN CARTESIAN COORDINATES

 uvw/hkl : ORIENTATION OF THE OPERATOR IN CARTESIAN COORDINATES

 LOCATED : ORIGIN OF THE OPERATOR IN CARTESIAN COORDINATES

   NO.   1 INVERSE   1    ORDER   1        NO.   2 INVERSE   2    ORDER   2
    1.000   0.000   0.000     0.000        -1.000   0.000   0.000     0.000
    0.000   1.000   0.000     0.000         0.000  -1.000   0.000     0.000
    0.000   0.000   1.000     0.000         0.000   0.000   1.000     0.000
             OPERATION E(   1)                       OPERATION C(   2)
 DETERMINANT 1.; ROTATION(DEG)   0.      DETERMINANT 1.; ROTATION(DEG) 180.
 TRANSLA (  0.000    0.000    0.000)     TRANSLA (  0.000    0.000    0.000)
 uvw/hkl (  0.000    0.000    0.000)     uvw/hkl (  0.000    0.000    4.000)
 LOCATED (  0.000    0.000    0.000)     LOCATED (  0.000    0.000    0.000)

   NO.   3 INVERSE   3    ORDER   2        NO.   4 INVERSE   4    ORDER   2
    1.000   0.000   0.000     0.000        -1.000   0.000   0.000     0.000
    0.000  -1.000   0.000     0.000         0.000   1.000   0.000     0.000
    0.000   0.000  -1.000     0.000         0.000   0.000  -1.000     0.000
             OPERATION C(   2)                       OPERATION C(   2)
 DETERMINANT 1.; ROTATION(DEG) 180.      DETERMINANT 1.; ROTATION(DEG) 180.
 TRANSLA (  0.000    0.000    0.000)     TRANSLA (  0.000    0.000    0.000)
 uvw/hkl (  4.000    0.000    0.000)     uvw/hkl (  0.000   -4.000    0.000)
 LOCATED (  0.000    0.000    0.000)     LOCATED (  0.000    0.000    0.000)

   NO.   5 INVERSE   5    ORDER   2        NO.   6 INVERSE   6    ORDER   2
    0.000  -1.000   0.000     0.000         0.000   1.000   0.000     0.000
   -1.000   0.000   0.000     0.000         1.000   0.000   0.000     0.000
    0.000   0.000  -1.000     0.000         0.000   0.000  -1.000     0.000
             OPERATION C(   2)                       OPERATION C(   2)
 DETERMINANT 1.; ROTATION(DEG) 180.      DETERMINANT 1.; ROTATION(DEG) 180.
 TRANSLA (  0.000    0.000    0.000)     TRANSLA (  0.000    0.000    0.000)
 uvw/hkl (  2.000   -2.000    0.000)     uvw/hkl ( -2.000   -2.000    0.000)
 LOCATED (  0.000    0.000    0.000)     LOCATED (  0.000    0.000    0.000)

   NO.   7 INVERSE   8    ORDER   4        NO.   8 INVERSE   7    ORDER   4
    0.000   1.000   0.000     0.000         0.000  -1.000   0.000     0.000
   -1.000   0.000   0.000     0.000         1.000   0.000   0.000     0.000
    0.000   0.000   1.000     0.000         0.000   0.000   1.000     0.000
             OPERATION C(   4)                       OPERATION C(   4)
 DETERMINANT 1.; ROTATION(DEG)  90.      DETERMINANT 1.; ROTATION(DEG)  90.
 TRANSLA (  0.000    0.000    0.000)     TRANSLA (  0.000    0.000    0.000)
 uvw/hkl (  0.000    0.000    2.000)     uvw/hkl (  0.000    0.000    2.000)
 LOCATED (  0.000    0.000    0.000)     LOCATED (  0.000    0.000    0.000)

   NO.   9 INVERSE   9    ORDER   2        NO.  10 INVERSE  10    ORDER   2
   -1.000   0.000   0.000     0.000         1.000   0.000   0.000     0.000
    0.000  -1.000   0.000     0.000         0.000   1.000   0.000     0.000
    0.000   0.000  -1.000     0.000         0.000   0.000  -1.000     0.000
             OPERATION I(   2)                       OPERATION M(   2)
 DETERMINANT-1.; ROTATION(DEG) 180.      DETERMINANT-1.; ROTATION(DEG)   0.
 TRANSLA (  0.000    0.000    0.000)     TRANSLA (  0.000    0.000    0.000)
 uvw/hkl (  0.000    0.000    0.000)     uvw/hkl (  0.000    0.000   -2.000)
 LOCATED (  0.000    0.000    0.000)     LOCATED (  0.000    0.000    0.000)

   NO.  11 INVERSE  11    ORDER   2        NO.  12 INVERSE  12    ORDER   2
   -1.000   0.000   0.000     0.000         1.000   0.000   0.000     0.000
    0.000   1.000   0.000     0.000         0.000  -1.000   0.000     0.000
    0.000   0.000   1.000     0.000         0.000   0.000   1.000     0.000
             OPERATION M(   2)                       OPERATION M(   2)
 DETERMINANT-1.; ROTATION(DEG)   0.      DETERMINANT-1.; ROTATION(DEG)   0.
 TRANSLA (  0.000    0.000    0.000)     TRANSLA (  0.000    0.000    0.000)
 uvw/hkl (  2.000    0.000    0.000)     uvw/hkl (  0.000   -2.000    0.000)
 LOCATED (  0.000    0.000    0.000)     LOCATED (  0.000    0.000    0.000)

   NO.  13 INVERSE  13    ORDER   2        NO.  14 INVERSE  14    ORDER   2
    0.000   1.000   0.000     0.000         0.000  -1.000   0.000     0.000
    1.000   0.000   0.000     0.000        -1.000   0.000   0.000     0.000
    0.000   0.000   1.000     0.000         0.000   0.000   1.000     0.000
             OPERATION M(   2)                       OPERATION M(   2)
 DETERMINANT-1.; ROTATION(DEG)   0.      DETERMINANT-1.; ROTATION(DEG)   0.
 TRANSLA (  0.000    0.000    0.000)     TRANSLA (  0.000    0.000    0.000)
 uvw/hkl (  1.000   -1.000    0.000)     uvw/hkl (  1.000    1.000    0.000)
 LOCATED (  0.000    0.000    0.000)     LOCATED (  0.000    0.000    0.000)

   NO.  15 INVERSE  16    ORDER   4        NO.  16 INVERSE  15    ORDER   4
    0.000  -1.000   0.000     0.000         0.000   1.000   0.000     0.000
    1.000   0.000   0.000     0.000        -1.000   0.000   0.000     0.000
    0.000   0.000  -1.000     0.000         0.000   0.000  -1.000     0.000
             OPERATION S(   4)                       OPERATION S(   4)
 DETERMINANT-1.; ROTATION(DEG)  90.      DETERMINANT-1.; ROTATION(DEG)  90.
 TRANSLA (  0.000    0.000    0.000)     TRANSLA (  0.000    0.000    0.000)
 uvw/hkl (  0.000    0.000    2.000)     uvw/hkl (  0.000    0.000    2.000)
 LOCATED (  0.000    0.000    0.000)     LOCATED (  0.000    0.000    0.000)
 SSSSSSSSSSSSSSSSSSSSSSSSSSSSSSSSSSSSSSSSSSSSSSSSSSSSSSSSSSSSSSSSSSSSSSSSSSSSSS
 REDUCTION OF SYMMETRY - ATOMIC LABELS SET TO (ATOM, AT. N., LABEL)
   1(229) 1;   2(229) 2;   3(229) 1;   4(229) 2;   5(229) 1;   6(229) 1;
   7(229) 1;   8(229) 1;   9(208) 0;  10(208) 0;  11(208) 0;  12(208) 0;
  13(208) 0;  14(208) 0;  15(208) 0;  16(208) 0;  17(208) 0;  18(208) 0;
  19(208) 0;  20(208) 0;  21(208) 0;  22(208) 0;  23(208) 0;  24(208) 0;
  25(238) 0;  26(238) 0;  27(238) 0;  28(238) 0;  29(238) 0;  30(238) 0;
  31(238) 0;  32(238) 0;
 THE NUMBER OF SYMMETRY OPERATORS HAS BEEN REDUCED FROM 16 TO  8
 *******************************************************************************

 GCALCO - MAX INDICES DIRECT LATTICE VECTOR     9     9    32
 NO.OF VECTORS CREATED 6999 STARS  569 RMAX   168.68580 BOHR

 GEOMETRY FOR WAVE FUNCTION - DIMENSIONALITY OF THE SYSTEM    3
 (NON PERIODIC DIRECTION: LATTICE PARAMETER FORMALLY SET TO 500)
 *******************************************************************************
 LATTICE PARAMETERS (ANGSTROMS AND DEGREES) - BOHR = 0.5291772083 ANGSTROM
 PRIMITIVE CELL - CENTRING CODE 1/1 VOLUME=   423.813486 - DENSITY  5.731 g/cm^3
         A              B              C           ALPHA      BETA       GAMMA 
    11.10963748    11.10963748     3.43380000    90.000000  90.000000  90.000000
 *******************************************************************************
 ATOMS IN THE ASYMMETRIC UNIT   13 - ATOMS IN THE UNIT CELL:   32
     ATOM                 X/A                 Y/B                 Z/C    
 *******************************************************************************
      1 T 229 CU   -5.000000000000E-01 -5.000000000000E-01  0.000000000000E+00
      2 T 229 CU    2.500000000000E-01  2.500000000000E-01  0.000000000000E+00
      3 T 229 CU    0.000000000000E+00  0.000000000000E+00  0.000000000000E+00
      4 F 229 CU   -2.500000000000E-01 -2.500000000000E-01  0.000000000000E+00
      5 T 229 CU    2.500000000000E-01 -2.500000000000E-01  0.000000000000E+00
      6 T 229 CU    0.000000000000E+00 -5.000000000000E-01  0.000000000000E+00
      7 F 229 CU   -2.500000000000E-01  2.500000000000E-01  0.000000000000E+00
      8 F 229 CU   -5.000000000000E-01  0.000000000000E+00  0.000000000000E+00
      9 T 208 O    -3.750000000000E-01 -3.750000000000E-01  0.000000000000E+00
     10 F 208 O     3.750000000000E-01  3.750000000000E-01  0.000000000000E+00
     11 T 208 O     1.250000000000E-01  1.250000000000E-01  0.000000000000E+00
     12 F 208 O    -1.250000000000E-01 -1.250000000000E-01  0.000000000000E+00
     13 T 208 O     3.750000000000E-01 -1.250000000000E-01  0.000000000000E+00
     14 F 208 O     1.250000000000E-01 -3.750000000000E-01  0.000000000000E+00
     15 F 208 O    -1.250000000000E-01  3.750000000000E-01  0.000000000000E+00
     16 F 208 O    -3.750000000000E-01  1.250000000000E-01  0.000000000000E+00
     17 T 208 O    -3.750000000000E-01  3.750000000000E-01  0.000000000000E+00
     18 T 208 O     3.750000000000E-01  1.250000000000E-01  0.000000000000E+00
     19 T 208 O     1.250000000000E-01 -1.250000000000E-01  0.000000000000E+00
     20 F 208 O    -1.250000000000E-01 -3.750000000000E-01  0.000000000000E+00
     21 F 208 O     3.750000000000E-01 -3.750000000000E-01  0.000000000000E+00
     22 F 208 O     1.250000000000E-01  3.750000000000E-01  0.000000000000E+00
     23 F 208 O    -1.250000000000E-01  1.250000000000E-01  0.000000000000E+00
     24 F 208 O    -3.750000000000E-01 -1.250000000000E-01  0.000000000000E+00
     25 T 238 SR   -2.500000000000E-01 -5.000000000000E-01  5.000000000000E-01
     26 F 238 SR   -5.000000000000E-01  2.500000000000E-01  5.000000000000E-01
     27 T 238 SR    2.500000000000E-01  0.000000000000E+00  5.000000000000E-01
     28 F 238 SR    0.000000000000E+00 -2.500000000000E-01  5.000000000000E-01
     29 F 238 SR   -5.000000000000E-01 -2.500000000000E-01  5.000000000000E-01
     30 F 238 SR    2.500000000000E-01 -5.000000000000E-01  5.000000000000E-01
     31 F 238 SR    0.000000000000E+00  2.500000000000E-01  5.000000000000E-01
     32 F 238 SR   -2.500000000000E-01  0.000000000000E+00  5.000000000000E-01

 T = ATOM BELONGING TO THE ASYMMETRIC UNIT

 ****    8 SYMMOPS - TRANSLATORS IN FRACTIONAL UNITS
 **** MATRICES AND TRANSLATORS IN THE CRYSTALLOGRAPHIC REFERENCE FRAME
   V INV                    ROTATION MATRICES                   TRANSLATORS
   1   1  1.00  0.00  0.00  0.00  1.00  0.00  0.00  0.00  1.00  0.00  0.00  0.00
   2   2 -1.00  0.00  0.00  0.00 -1.00  0.00  0.00  0.00  1.00  0.00  0.00  0.00
   3   3  0.00 -1.00  0.00 -1.00  0.00  0.00  0.00  0.00 -1.00  0.00  0.00  0.00
   4   4 -0.00  1.00  0.00  1.00 -0.00  0.00  0.00  0.00 -1.00  0.00  0.00  0.00
   5   5 -1.00  0.00  0.00  0.00 -1.00  0.00  0.00  0.00 -1.00  0.00  0.00  0.00
   6   6  1.00 -0.00  0.00 -0.00  1.00  0.00  0.00  0.00 -1.00  0.00  0.00  0.00
   7   7 -0.00  1.00  0.00  1.00 -0.00  0.00  0.00  0.00  1.00  0.00  0.00  0.00
   8   8  0.00 -1.00  0.00 -1.00  0.00  0.00  0.00  0.00  1.00  0.00  0.00  0.00

 DIRECT LATTICE VECTORS CARTESIAN COMPONENTS (ANGSTROM)
          X                    Y                    Z
  -0.785570000000E+01  -0.785570000000E+01   0.000000000000E+00
   0.785570000000E+01  -0.785570000000E+01   0.000000000000E+00
   0.000000000000E+00   0.000000000000E+00   0.343380000000E+01


 CARTESIAN COORDINATES - PRIMITIVE CELL
 *******************************************************************************
 *      ATOM          X(ANGSTROM)         Y(ANGSTROM)         Z(ANGSTROM)
 *******************************************************************************
    1   229 CU    0.000000000000E+00 -7.855700000000E+00  0.000000000000E+00
    2   229 CU    0.000000000000E+00 -3.927850000000E+00  0.000000000000E+00
    3   229 CU    0.000000000000E+00  0.000000000000E+00  0.000000000000E+00
    4   229 CU    4.700037766092E-16  3.927850000000E+00  0.000000000000E+00
    5   229 CU   -3.927850000000E+00  1.645013218132E-15  0.000000000000E+00
    6   229 CU    3.927850000000E+00 -3.927850000000E+00  0.000000000000E+00
    7   229 CU    3.927850000000E+00  4.700037766092E-16  0.000000000000E+00
    8   229 CU   -3.927850000000E+00 -3.927850000000E+00  0.000000000000E+00
    9   208 O    -9.400075532184E-16  5.891775000000E+00  0.000000000000E+00
   10   208 O    -9.400075532184E-16 -5.891775000000E+00  0.000000000000E+00
   11   208 O     0.000000000000E+00 -1.963925000000E+00  0.000000000000E+00
   12   208 O     4.700037766092E-16  1.963925000000E+00  0.000000000000E+00
   13   208 O    -3.927850000000E+00 -1.963925000000E+00  0.000000000000E+00
   14   208 O    -3.927850000000E+00  1.963925000000E+00  0.000000000000E+00
   15   208 O     3.927850000000E+00 -1.963925000000E+00  0.000000000000E+00
   16   208 O     3.927850000000E+00  1.963925000000E+00  0.000000000000E+00
   17   208 O     5.891775000000E+00  9.400075532184E-16  0.000000000000E+00
   18   208 O    -1.963925000000E+00 -3.927850000000E+00  0.000000000000E+00
   19   208 O    -1.963925000000E+00  0.000000000000E+00  0.000000000000E+00
   20   208 O    -1.963925000000E+00  3.927850000000E+00  0.000000000000E+00
   21   208 O    -5.891775000000E+00  1.880015106437E-15  0.000000000000E+00
   22   208 O     1.963925000000E+00 -3.927850000000E+00  0.000000000000E+00
   23   208 O     1.963925000000E+00  4.700037766092E-16  0.000000000000E+00
   24   208 O     1.963925000000E+00  3.927850000000E+00  0.000000000000E+00
   25   238 SR    5.891775000000E+00 -1.963925000000E+00  1.716900000000E+00
   26   238 SR   -1.963925000000E+00 -5.891775000000E+00  1.716900000000E+00
   27   238 SR   -1.963925000000E+00 -1.963925000000E+00  1.716900000000E+00
   28   238 SR   -1.963925000000E+00  1.963925000000E+00  1.716900000000E+00
   29   238 SR   -5.891775000000E+00 -1.963925000000E+00  1.716900000000E+00
   30   238 SR    1.963925000000E+00 -5.891775000000E+00  1.716900000000E+00
   31   238 SR    1.963925000000E+00 -1.963925000000E+00  1.716900000000E+00
   32   238 SR    1.963925000000E+00  1.963925000000E+00  1.716900000000E+00

 *******************************************************************************
 *** PSEUDOPOTENTIAL INFORMATION ***
 *******************************************************************************

 ATOMIC NUMBER  29, NUCLEAR CHARGE 19.000, GIVEN IN INPUT       PSEUDOPOTENTIAL
   TYPE       EXPONENT      COEFF.    N      EXPONENT      COEFF.    N
  W0 TMS     6.2514963   19.0000000  -1     6.7272533  118.7784294   1
             6.6102459 -105.8998240   0
  P0 TMS    12.3656871  127.3506942   0
  P1 TMS    11.1607294   71.2298490   0

 ATOMIC NUMBER   8, NUCLEAR CHARGE  6.000, GIVEN IN INPUT       PSEUDOPOTENTIAL
   TYPE       EXPONENT      COEFF.    N      EXPONENT      COEFF.    N
  W0 TMS     9.2979390    6.0000000  -1     8.8649220   55.7876342   1
             8.6292567  -38.8197850   0
  P0 TMS     8.7192445   38.4191413   0

 ATOMIC NUMBER  38, NUCLEAR CHARGE  2.000, GIVEN IN INPUT       PSEUDOPOTENTIAL
   TYPE       EXPONENT      COEFF.    N      EXPONENT      COEFF.    N
  W0 TMS     4.3839388    2.0000000  -1     3.1964983    8.7678775   1
             0.9899150  -14.2552431   0
  P0 TMS     1.2868349  146.8716052   0
  P1 TMS     0.9567448  140.0262284   0
  P2 TMS     1.9483165   24.4454878   0

 *******************************************************************************
 LOCAL ATOMIC FUNCTIONS BASIS SET
 *******************************************************************************
   ATOM   X(AU)   Y(AU)   Z(AU)  N. TYPE  EXPONENT  S COEF   P COEF   D/F/G COEF
 *******************************************************************************
   1 CU   0.000 -14.845   0.000
                                  1 S  
                                         2.785E+01-1.934E-02 0.000E+00 0.000E+00
                                         2.142E+01 8.861E-02 0.000E+00 0.000E+00
                                         1.054E+01-3.559E-01 0.000E+00 0.000E+00
                                         2.536E+00 5.381E-01 0.000E+00 0.000E+00
                                         1.250E+00 5.111E-01 0.000E+00 0.000E+00
                                         5.998E-01 1.476E-01 0.000E+00 0.000E+00
                                  2 S  
                                         2.785E+01-2.653E-03 0.000E+00 0.000E+00
                                         2.142E+01-7.542E-03 0.000E+00 0.000E+00
                                         1.054E+01 7.976E-02 0.000E+00 0.000E+00
                                         2.536E+00-1.553E-01 0.000E+00 0.000E+00
                                         1.250E+00-2.531E-01 0.000E+00 0.000E+00
                                         5.998E-01-2.817E-02 0.000E+00 0.000E+00
                           3-     5 P  
                                         1.859E+01 0.000E+00 3.652E-03 0.000E+00
                                         1.430E+01 0.000E+00-3.708E-02 0.000E+00
                                         5.631E+00 0.000E+00 2.171E-01 0.000E+00
                                         2.683E+00 0.000E+00 4.410E-01 0.000E+00
                                         1.259E+00 0.000E+00 3.587E-01 0.000E+00
                                         5.741E-01 0.000E+00 1.148E-01 0.000E+00
                                         2.092E-01 0.000E+00 7.316E-03 0.000E+00
                           6-    10 D  
                                         1.579E+01 0.000E+00 0.000E+00 8.422E-02
                                         7.203E+00 0.000E+00 0.000E+00 2.554E-01
                                         2.974E+00 0.000E+00 0.000E+00 3.500E-01
                                         1.207E+00 0.000E+00 0.000E+00 3.417E-01
                                         4.640E-01 0.000E+00 0.000E+00 2.417E-01
                          11-    17 F  
                                         1.692E+00 0.000E+00 0.000E+00 1.000E+00
                                 18 S  
                                         2.000E-01 1.000E+00 0.000E+00 0.000E+00
                                 19 S  
                                         6.000E-01 1.000E+00 0.000E+00 0.000E+00
                          20-    22 P  
                                         2.000E-01 0.000E+00 1.000E+00 0.000E+00
                          23-    25 P  
                                         6.000E-01 0.000E+00 1.000E+00 0.000E+00
                          26-    30 D  
                                         2.000E-01 0.000E+00 0.000E+00 1.000E+00
                          31-    35 D  
                                         6.000E-01 0.000E+00 0.000E+00 1.000E+00
   2 CU   0.000  -7.423   0.000
   3 CU   0.000   0.000   0.000
   4 CU   0.000   7.423   0.000
   5 CU  -7.423   0.000   0.000
   6 CU   7.423  -7.423   0.000
   7 CU   7.423   0.000   0.000
   8 CU  -7.423  -7.423   0.000
   9 O   -0.000  11.134   0.000
                                281 S  
                                         2.680E-01 3.048E-01 0.000E+00 0.000E+00
                                         5.731E-01 4.538E-01 0.000E+00 0.000E+00
                                         1.225E+00 2.959E-01 0.000E+00 0.000E+00
                                         2.620E+00 1.957E-02 0.000E+00 0.000E+00
                                         5.603E+00-1.286E-01 0.000E+00 0.000E+00
                                         1.198E+01 1.202E-02 0.000E+00 0.000E+00
                                         2.562E+01 4.070E-04 0.000E+00 0.000E+00
                                         5.478E+01-7.600E-05 0.000E+00 0.000E+00
                         282-   284 P  
                                         3.337E-01 0.000E+00 2.560E-01 0.000E+00
                                         6.666E-01 0.000E+00 2.819E-01 0.000E+00
                                         1.332E+00 0.000E+00 2.428E-01 0.000E+00
                                         2.661E+00 0.000E+00 1.611E-01 0.000E+00
                                         5.316E+00 0.000E+00 8.231E-02 0.000E+00
                                         1.062E+01 0.000E+00 3.990E-02 0.000E+00
                                         2.122E+01 0.000E+00 4.679E-03 0.000E+00
                         285-   289 D  
                                         6.693E-01 0.000E+00 0.000E+00 1.000E+00
                         290-   296 F  
                                         1.423E+00 0.000E+00 0.000E+00 1.000E+00
                                297 S  
                                         2.000E-01 1.000E+00 0.000E+00 0.000E+00
                                298 S  
                                         6.000E-01 1.000E+00 0.000E+00 0.000E+00
                         299-   301 P  
                                         2.000E-01 0.000E+00 1.000E+00 0.000E+00
                         302-   304 P  
                                         6.000E-01 0.000E+00 1.000E+00 0.000E+00
  10 O   -0.000 -11.134   0.000
  11 O    0.000  -3.711   0.000
  12 O    0.000   3.711   0.000
  13 O   -7.423  -3.711   0.000
  14 O   -7.423   3.711   0.000
  15 O    7.423  -3.711   0.000
  16 O    7.423   3.711   0.000
  17 O   11.134   0.000   0.000
  18 O   -3.711  -7.423   0.000
  19 O   -3.711   0.000   0.000
  20 O   -3.711   7.423   0.000
  21 O  -11.134   0.000   0.000
  22 O    3.711  -7.423   0.000
  23 O    3.711   0.000   0.000
  24 O    3.711   7.423   0.000
  25 SR  11.134  -3.711   3.244
                                665 S  
                                         2.177E-01-9.389E-02 0.000E+00 0.000E+00
                                         4.871E-01-2.476E-01 0.000E+00 0.000E+00
                                         1.090E+00 1.601E-01 0.000E+00 0.000E+00
                                         2.439E+00-4.360E-02 0.000E+00 0.000E+00
                                         5.457E+00 8.684E-03 0.000E+00 0.000E+00
                                         1.221E+01-1.296E-03 0.000E+00 0.000E+00
                         666-   668 P  
                                         2.236E-01 0.000E+00-4.747E-02 0.000E+00
                                         4.507E-01 0.000E+00-1.710E-01 0.000E+00
                                         9.086E-01 0.000E+00 1.048E-01 0.000E+00
                                         1.831E+00 0.000E+00-2.952E-02 0.000E+00
                                         3.692E+00 0.000E+00 6.196E-03 0.000E+00
                                         7.442E+00 0.000E+00-9.550E-04 0.000E+00
                         669-   673 D  
                                         5.283E-01 0.000E+00 0.000E+00 1.000E+00
                                674 S  
                                         2.000E-01 1.000E+00 0.000E+00 0.000E+00
                                675 S  
                                         6.000E-01 1.000E+00 0.000E+00 0.000E+00
                         676-   678 P  
                                         2.000E-01 0.000E+00 1.000E+00 0.000E+00
                         679-   681 P  
                                         6.000E-01 0.000E+00 1.000E+00 0.000E+00
  26 SR  -3.711 -11.134   3.244
  27 SR  -3.711  -3.711   3.244
  28 SR  -3.711   3.711   3.244
  29 SR -11.134  -3.711   3.244
  30 SR   3.711 -11.134   3.244
  31 SR   3.711  -3.711   3.244
  32 SR   3.711   3.711   3.244
 INFORMATION **** SET_MPP **** PCRYSTAL CALCULATION
 INFORMATION **** READM2 **** NEW DEFAULT: FOCK/KS MATRIX MIXING SET TO 30 %
 INFORMATION **** READM2 **** NEW DEFAULT: FULL DIRECT SCF MODE
 INFORMATION **** READM2 **** NEW DEFAULT: COULOMB BIPOLAR BUFFER SET TO 32 Mb
 INFORMATION **** READM2 **** NEW DEFAULT: EXCHANGE BIPOLAR BUFFER SET TO 32 Mb

 *******************************************************************************
 NEW DEFAULT: DFT INTEGRATION GRID INCREASED TO XLGRID
 NEW DEFAULT: DIIS ACCELERATOR ACTIVE
 USE KEYWORD NODIIS TO TURN IT OFF
 *******************************************************************************

 INFORMATION **** READM2 **** FULL DIRECT SCF (MONO AND BIEL INT) SELECTED
 INFORMATION **** BIPOSIZE **** COULOMB BIPOLAR BUFFER SET TO   100000000
 INFORMATION **** EXCHSIZE **** EXCHANGE BIPOLAR BUFFER SIZE SET TO    10000000
 INFORMATION **** TOLDEE **** SCF TOL ON TOTAL ENERGY SET TO          10
 INFORMATION **** TOLINTEG **** COULOMB AND EXCHANGE SERIES TOLERANCES MODIFIED
 INFORMATION **** MAXCYCLE **** MAX NUMBER OF SCF CYCLES SET TO         200
 INFORMATION **** SMEAR **** FERMI SMEARING ACTIVE
 FERMI SMEARING - TEMPERATURE SMEARING OF FERMI SURFACE  0.1000E-12
 INFORMATION **** SAVEWF **** not fully tested
 INFORMATION **** SPINLOCK **** LOCK IN A GIVEN SPIN STATE
 ALPHA-BETA ELECTRONS LOCKED TO   4 FOR 200 SCF CYCLES
 SSSSSSSSSSSSSSSSSSSSSSSSSSSSSSSSSSSSSSSSSSSSSSSSSSSSSSSSSSSSSSSSSSSSSSSSSSSSSS
 ATOMIC SPINS SET TO (ATOM, AT. N., SPIN)
   1 229 1   2 229-1   3 229 1   4 229-1   5 229 1   6 229 1   7 229 1   8 229 1
   9 208 0  10 208 0  11 208 0  12 208 0  13 208 0  14 208 0  15 208 0  16 208 0
  17 208 0  18 208 0  19 208 0  20 208 0  21 208 0  22 208 0  23 208 0  24 208 0
  25 238 0  26 238 0  27 238 0  28 238 0  29 238 0  30 238 0  31 238 0  32 238 0
 *******************************************************************************
 N. OF ATOMS PER CELL        32  COULOMB OVERLAP TOL         (T1) 10**   -8
 NUMBER OF SHELLS           272  COULOMB PENETRATION TOL     (T2) 10**   -8
 NUMBER OF AO               800  EXCHANGE OVERLAP TOL        (T3) 10**   -8
 N. OF ELECTRONS PER CELL   264  EXCHANGE PSEUDO OVP (F(G))  (T4) 10**   -8
 CORE ELECTRONS PER CELL      0  EXCHANGE PSEUDO OVP (P(G))  (T5) 10**  -16
 N. OF SYMMETRY OPERATORS     8  POLE ORDER IN MONO ZONE                  4
 *******************************************************************************
 TYPE OF CALCULATION :  UNRESTRICTED OPEN SHELL
 KOHN-SHAM HAMILTONIAN

 (EXCHANGE)[CORRELATION] FUNCTIONAL:(PERDEW-BURKE-ERNZERHOF)[PERDEW-BURKE-ERNZERHOF]


 HYBRID EXCHANGE - PERCENTAGE OF FOCK EXCHANGE    25.0000

 SPIN POLARIZED DFT SELECTED
 CORE  PSEUDO POTENTIAL         TOL. ON PSEUDO              (TP) 10**- 6
 SPIN POLARIZATION - ALPHA-BETA =  4 FOR 200 CYCLES

 CAPPA:IS1  5;IS2  5;IS3  4; K PTS MONK NET  27; SYMMOPS:K SPACE   8;G SPACE   8

 *******************************************************************************
 MAX NUMBER OF SCF CYCLES     200  CONVERGENCE ON DELTAP        10**-20
 WEIGHT OF F(I) IN F(I+1)      90% CONVERGENCE ON ENERGY        10**-10
 SPIN POLARIZATION - ALPHA-BETA =  4 FOR 200 CYCLES
 SHRINK. FACT.(MONKH.)    5  5  4  NUMBER OF K POINTS IN THE IBZ     27
 SHRINKING FACTOR(GILAT NET)   10  NUMBER OF K POINTS(GILAT NET)    155
 *******************************************************************************
 *** K POINTS COORDINATES (OBLIQUE COORDINATES IN UNITS OF IS =  5)
   1-R(  0  0  0)   2-C(  1  0  0)   3-C(  2  0  0)   4-C(  1  1  0)
   5-C(  2  1  0)   6-C(  3  1  0)   7-C(  4  1  0)   8-C(  2  2  0)
   9-C(  3  2  0)  10-C(  0  0  1)  11-C(  1  0  1)  12-C(  2  0  1)
  13-C(  1  1  1)  14-C(  2  1  1)  15-C(  3  1  1)  16-C(  4  1  1)
  17-C(  2  2  1)  18-C(  3  2  1)  19-R(  0  0  2)  20-C(  1  0  2)
  21-C(  2  0  2)  22-C(  1  1  2)  23-C(  2  1  2)  24-C(  3  1  2)
  25-C(  4  1  2)  26-C(  2  2  2)  27-C(  3  2  2)

 DIRECT LATTICE VECTORS COMPON. (A.U.)     RECIP. LATTICE VECTORS COMPON. (A.U.) 
        X            Y            Z              X            Y            Z
  -14.8451216  -14.8451216    0.0000000     -0.2116246   -0.2116246    0.0000000
   14.8451216  -14.8451216    0.0000000      0.2116246   -0.2116246    0.0000000
    0.0000000    0.0000000    6.4889416      0.0000000    0.0000000    0.9682912

 DISK SPACE FOR EIGENVECTORS (FTN 10)    33280000 REALS

 SYMMETRY ADAPTION OF THE BLOCH FUNCTIONS ENABLED
 TTTTTTTTTTTTTTTTTTTTTTTTTTTTTT gordsh1     TELAPSE        1.47 TCPU        0.05

 MATRIX SIZE: P(G) 2526000, F(G)  450872, P(G) IRR  225462, F(G) IRR   91452
 MAX G-VECTOR INDEX FOR 1- AND 2-ELECTRON INTEGRALS  75

 TTTTTTTTTTTTTTTTTTTTTTTTTTTTTT INPUT       TELAPSE        1.51 TCPU        0.08

 NEIGHBORS OF THE NON-EQUIVALENT ATOMS

 N = NUMBER OF NEIGHBORS AT DISTANCE R
    ATOM  N     R/ANG      R/AU   NEIGHBORS (ATOM LABELS AND CELL INDICES)
   1 CU   4     1.9639     3.7113    9 O    1 1 0   10 O    0 0 0   17 O    1 0 0
                                    21 O    0 1 0
   1 CU   8     3.2652     6.1704   25 SR   1 0 0   25 SR   1 0-1   26 SR   0 0-1
                                    26 SR   0 0 0   29 SR   0 1-1   29 SR   0 1 0
                                    30 SR   0 0 0   30 SR   0 0-1
   1 CU   2     3.4338     6.4889    1 CU   0 0-1    1 CU   0 0 1
   1 CU   4     3.9278     7.4226    2 CU   0 0 0    4 CU   1 1 0    5 CU   0 1 0
                                     7 CU   1 0 0
   1 CU   8     3.9558     7.4753    9 O    1 1 1    9 O    1 1-1   10 O    0 0 1
                                    10 O    0 0-1   17 O    1 0 1   17 O    1 0-1
                                    21 O    0 1 1   21 O    0 1-1
   1 CU   8     4.3915     8.2987   13 O    0 1 0   14 O    0 1 0   15 O    1 0 0
                                    16 O    1 0 0   18 O    0 0 0   20 O    1 1 0
                                    22 O    0 0 0   24 O    1 1 0

   2 CU   4     1.9639     3.7113   10 O    0 0 0   11 O    0 0 0   18 O    0 0 0
                                    22 O    0 0 0
   2 CU   8     3.2652     6.1704   26 SR   0 0-1   26 SR   0 0 0   27 SR   0 0-1
                                    27 SR   0 0 0   30 SR   0 0 0   30 SR   0 0-1
                                    31 SR   0 0 0   31 SR   0 0-1
   2 CU   2     3.4338     6.4889    2 CU   0 0-1    2 CU   0 0 1
   2 CU   4     3.9278     7.4226    1 CU   0 0 0    3 CU   0 0 0    6 CU   0 0 0
                                     8 CU   0 0 0
   2 CU   8     3.9558     7.4753   10 O    0 0-1   10 O    0 0 1   11 O    0 0 1
                                    11 O    0 0-1   18 O    0 0-1   18 O    0 0 1
                                    22 O    0 0 1   22 O    0 0-1
   2 CU   8     4.3915     8.2987   13 O    0 0 0   14 O    0 1 0   15 O    0 0 0
                                    16 O    1 0 0   17 O    1 0 0   19 O    0 0 0
                                    21 O    0 1 0   23 O    0 0 0

   3 CU   4     1.9639     3.7113   11 O    0 0 0   12 O    0 0 0   19 O    0 0 0
                                    23 O    0 0 0
   3 CU   8     3.2652     6.1704   27 SR   0 0 0   27 SR   0 0-1   28 SR   0 0-1
                                    28 SR   0 0 0   31 SR   0 0-1   31 SR   0 0 0
                                    32 SR   0 0 0   32 SR   0 0-1
   3 CU   2     3.4338     6.4889    3 CU   0 0-1    3 CU   0 0 1
   3 CU   4     3.9278     7.4226    2 CU   0 0 0    4 CU   0 0 0    5 CU   0 0 0
                                     7 CU   0 0 0
   3 CU   8     3.9558     7.4753   11 O    0 0-1   11 O    0 0 1   12 O    0 0 1
                                    12 O    0 0-1   19 O    0 0-1   19 O    0 0 1
                                    23 O    0 0 1   23 O    0 0-1
   3 CU   8     4.3915     8.2987   13 O    0 0 0   14 O    0 0 0   15 O    0 0 0
                                    16 O    0 0 0   18 O    0 0 0   20 O    0 0 0
                                    22 O    0 0 0   24 O    0 0 0

   5 CU   4     1.9639     3.7113   13 O    0 0 0   14 O    0 0 0   19 O    0 0 0
                                    21 O    0 0 0
   5 CU   8     3.2652     6.1704   27 SR   0 0-1   27 SR   0 0 0   28 SR   0 0 0
                                    28 SR   0 0-1   29 SR   0 0-1   29 SR   0 0 0
                                    30 SR   0-1 0   30 SR   0-1-1
   5 CU   2     3.4338     6.4889    5 CU   0 0-1    5 CU   0 0 1
   5 CU   4     3.9278     7.4226    1 CU   0-1 0    3 CU   0 0 0    6 CU   0-1 0
                                     8 CU   0 0 0
   5 CU   8     3.9558     7.4753   13 O    0 0-1   13 O    0 0 1   14 O    0 0 1
                                    14 O    0 0-1   19 O    0 0 1   19 O    0 0-1
                                    21 O    0 0-1   21 O    0 0 1
   5 CU   8     4.3915     8.2987    9 O    1 0 0   10 O    0-1 0   11 O    0 0 0
                                    12 O    0 0 0   18 O    0 0 0   20 O    0 0 0
                                    22 O    0-1 0   24 O    1 0 0

   6 CU   4     1.9639     3.7113   14 O    0 1 0   15 O    0 0 0   20 O    0 1 0
                                    22 O    0 0 0
   6 CU   8     3.2652     6.1704   25 SR   0 0 0   25 SR   0 0-1   28 SR   0 1-1
                                    28 SR   0 1 0   30 SR   0 0 0   30 SR   0 0-1
                                    31 SR   0 0-1   31 SR   0 0 0
   6 CU   2     3.4338     6.4889    6 CU   0 0-1    6 CU   0 0 1
   6 CU   4     3.9278     7.4226    2 CU   0 0 0    4 CU   0 1 0    5 CU   0 1 0
                                     7 CU   0 0 0
   6 CU   8     3.9558     7.4753   14 O    0 1-1   14 O    0 1 1   15 O    0 0-1
                                    15 O    0 0 1   20 O    0 1-1   20 O    0 1 1
                                    22 O    0 0-1   22 O    0 0 1
   6 CU   8     4.3915     8.2987    9 O    0 1 0   10 O    0 0 0   11 O    0 0 0
                                    12 O    0 1 0   17 O    0 0 0   19 O    0 1 0
                                    21 O    0 1 0   23 O    0 0 0

   9 O    2     1.9639     3.7113    1 CU  -1-1 0    4 CU   0 0 0
   9 O    4     2.6086     4.9295   25 SR   0-1 0   25 SR   0-1-1   29 SR  -1 0-1
                                    29 SR  -1 0 0
   9 O    4     2.7774     5.2485   17 O    0-1 0   20 O    0 0 0   21 O   -1 0 0
                                    24 O    0 0 0
   9 O    2     3.4338     6.4889    9 O    0 0-1    9 O    0 0 1
   9 O    4     3.9279     7.4226   10 O   -1-1 0   12 O    0 0 0   13 O   -1 0 0
                                    15 O    0-1 0
   9 O    4     3.9558     7.4753    1 CU  -1-1-1    1 CU  -1-1 1    4 CU   0 0-1
                                     4 CU   0 0 1

  11 O    2     1.9639     3.7113    2 CU   0 0 0    3 CU   0 0 0
  11 O    4     2.6086     4.9295   27 SR   0 0 0   27 SR   0 0-1   31 SR   0 0 0
                                    31 SR   0 0-1
  11 O    4     2.7774     5.2485   18 O    0 0 0   19 O    0 0 0   22 O    0 0 0
                                    23 O    0 0 0
  11 O    2     3.4338     6.4889   11 O    0 0-1   11 O    0 0 1
  11 O    4     3.9278     7.4226   10 O    0 0 0   12 O    0 0 0   13 O    0 0 0
                                    15 O    0 0 0
  11 O    4     3.9558     7.4753    2 CU   0 0-1    2 CU   0 0 1    3 CU   0 0 1
                                     3 CU   0 0-1

  13 O    2     1.9639     3.7113    5 CU   0 0 0    8 CU   0 0 0
  13 O    4     2.6086     4.9295   27 SR   0 0 0   27 SR   0 0-1   29 SR   0 0-1
                                    29 SR   0 0 0
  13 O    4     2.7774     5.2485   18 O    0 0 0   19 O    0 0 0   21 O    0 0 0
                                    24 O    1 0 0
  13 O    2     3.4338     6.4889   13 O    0 0-1   13 O    0 0 1
  13 O    4     3.9278     7.4226    9 O    1 0 0   11 O    0 0 0   14 O    0 0 0
                                    16 O    1 0 0
  13 O    4     3.9558     7.4753    5 CU   0 0 1    5 CU   0 0-1    8 CU   0 0-1
                                     8 CU   0 0 1

  17 O    2     1.9639     3.7113    1 CU  -1 0 0    7 CU   0 0 0
  17 O    4     2.6086     4.9295   25 SR   0 0 0   25 SR   0 0-1   26 SR  -1 0-1
                                    26 SR  -1 0 0
  17 O    4     2.7774     5.2485    9 O    0 1 0   10 O   -1 0 0   15 O    0 0 0
                                    16 O    0 0 0
  17 O    2     3.4338     6.4889   17 O    0 0-1   17 O    0 0 1
  17 O    4     3.9278     7.4226   18 O   -1 0 0   20 O    0 1 0   21 O   -1 1 0
                                    23 O    0 0 0
  17 O    4     3.9558     7.4753    1 CU  -1 0-1    1 CU  -1 0 1    7 CU   0 0-1
                                     7 CU   0 0 1

  18 O    2     1.9639     3.7113    2 CU   0 0 0    8 CU   0 0 0
  18 O    4     2.6086     4.9295   26 SR   0 0-1   26 SR   0 0 0   27 SR   0 0 0
                                    27 SR   0 0-1
  18 O    4     2.7774     5.2485   10 O    0 0 0   11 O    0 0 0   13 O    0 0 0
                                    16 O    1 0 0
  18 O    2     3.4338     6.4889   18 O    0 0-1   18 O    0 0 1
  18 O    4     3.9278     7.4226   17 O    1 0 0   19 O    0 0 0   22 O    0 0 0
                                    24 O    1 0 0
  18 O    4     3.9558     7.4753    2 CU   0 0 1    2 CU   0 0-1    8 CU   0 0-1
                                     8 CU   0 0 1

  19 O    2     1.9639     3.7113    3 CU   0 0 0    5 CU   0 0 0
  19 O    4     2.6086     4.9295   27 SR   0 0 0   27 SR   0 0-1   28 SR   0 0 0
                                    28 SR   0 0-1
  19 O    4     2.7774     5.2485   11 O    0 0 0   12 O    0 0 0   13 O    0 0 0
                                    14 O    0 0 0
  19 O    2     3.4338     6.4889   19 O    0 0-1   19 O    0 0 1
  19 O    4     3.9278     7.4226   18 O    0 0 0   20 O    0 0 0   21 O    0 0 0
                                    23 O    0 0 0
  19 O    4     3.9558     7.4753    3 CU   0 0 1    3 CU   0 0-1    5 CU   0 0-1
                                     5 CU   0 0 1

  25 SR   8     2.6086     4.9295    9 O    0 1 0    9 O    0 1 1   15 O    0 0 0
                                    15 O    0 0 1   17 O    0 0 0   17 O    0 0 1
                                    20 O    0 1 0   20 O    0 1 1
  25 SR   8     3.2652     6.1704    1 CU  -1 0 0    1 CU  -1 0 1    4 CU   0 1 0
                                     4 CU   0 1 1    6 CU   0 0 0    6 CU   0 0 1
                                     7 CU   0 0 0    7 CU   0 0 1
  25 SR   2     3.4338     6.4889   25 SR   0 0-1   25 SR   0 0 1
  25 SR   4     3.9278     7.4226   26 SR  -1 0 0   28 SR   0 1 0   29 SR  -1 1 0
                                    31 SR   0 0 0
  25 SR  16     4.7152     8.9104   10 O   -1 0 0   10 O   -1 0 1   12 O    0 1 0
                                    12 O    0 1 1   14 O    0 1 0   14 O    0 1 1
                                    16 O    0 0 0   16 O    0 0 1   21 O   -1 1 0
                                    21 O   -1 1 1   22 O    0 0 0   22 O    0 0 1
                                    23 O    0 0 0   23 O    0 0 1   24 O    0 1 0
                                    24 O    0 1 1
  25 SR   8     5.2172     9.8590   26 SR  -1 0-1   26 SR  -1 0 1   28 SR   0 1 1
                                    28 SR   0 1-1   29 SR  -1 1-1   29 SR  -1 1 1
                                    31 SR   0 0-1   31 SR   0 0 1

  27 SR   8     2.6086     4.9295   11 O    0 0 0   11 O    0 0 1   13 O    0 0 0
                                    13 O    0 0 1   18 O    0 0 0   18 O    0 0 1
                                    19 O    0 0 0   19 O    0 0 1
  27 SR   8     3.2652     6.1704    2 CU   0 0 1    2 CU   0 0 0    3 CU   0 0 0
                                     3 CU   0 0 1    5 CU   0 0 1    5 CU   0 0 0
                                     8 CU   0 0 0    8 CU   0 0 1
  27 SR   2     3.4338     6.4889   27 SR   0 0-1   27 SR   0 0 1
  27 SR   4     3.9278     7.4226   26 SR   0 0 0   28 SR   0 0 0   29 SR   0 0 0
                                    31 SR   0 0 0
  27 SR  16     4.7152     8.9104   10 O    0 0 0   10 O    0 0 1   12 O    0 0 1
                                    12 O    0 0 0   14 O    0 0 0   14 O    0 0 1
                                    16 O    1 0 0   16 O    1 0 1   21 O    0 0 0
                                    21 O    0 0 1   22 O    0 0 0   22 O    0 0 1
                                    23 O    0 0 1   23 O    0 0 0   24 O    1 0 0
                                    24 O    1 0 1
  27 SR   8     5.2172     9.8590   26 SR   0 0 1   26 SR   0 0-1   28 SR   0 0 1
                                    28 SR   0 0-1   29 SR   0 0-1   29 SR   0 0 1
                                    31 SR   0 0-1   31 SR   0 0 1


 SYMMETRY ALLOWED INTERNAL DEGREE(S) OF FREEDOM:  14
 TTTTTTTTTTTTTTTTTTTTTTTTTTTTTT SYMM        TELAPSE        1.76 TCPU        0.27
 TTTTTTTTTTTTTTTTTTTTTTTTTTTTTT INT_SCREEN  TELAPSE        1.80 TCPU        0.30
 INFORMATION **** EXCBUF **** EXCH. BIPO BUFFER: WORDS USED =     8273970

 DFT PARAMETERS

     ATOM       ELECTRONS   NET CHARGE   R(ANGSTROM)
   1 229  CU     17.0000      2.0000     0.73000000
   9 208  O       8.0000     -2.0000     1.40000000
  25 238  SR      0.0000      2.0000     1.18000000

 SIZE OF GRID=      93012
 TTTTTTTTTTTTTTTTTTTTTTTTTTTTTT MAKE_GRID2  TELAPSE        4.22 TCPU        2.71
 BECKE WEIGHT FUNCTION
 RADSAFE =     2.00
 TOLERANCES - DENSITY:10**- 6; POTENTIAL:10**- 9; GRID WGT:10**-14

 RADIAL INTEGRATION  - INTERVALS (POINTS,UPPER LIMIT):            1( 75,  4.0*R)

 ANGULAR INTEGRATION - INTERVALS (ACCURACY LEVEL [N. POINTS] UPPER LIMIT):
  1(  4[  86]   0.2)  2(  8[ 194]   0.5)  3( 12[ 350]   0.9)  4( 16[ 974]   3.5)
  5( 12[ 350]9999.0)
 TTTTTTTTTTTTTTTTTTTTTTTTTTTTTT INT_CALC    TELAPSE        4.26 TCPU        2.75
 EEEEEEEEEE INT_CALC TERMINATION  DATE 24 03 2018 TIME 20:45:14.7

 *******************************************************************************
 Generated by CrystalWriter                                                      
 CRYSTAL - SCF - TYPE OF CALCULATION :  UNRESTRICTED OPEN SHELL
 *******************************************************************************

 CAPPA:IS1  5;IS2  5;IS3  4; K PTS MONK NET  27; SYMMOPS:K SPACE   8;G SPACE   8

 TTTTTTTTTTTTTTTTTTTTTTTTTTTTTT SDIK        TELAPSE        4.43 TCPU        2.91

 AAAAAAAAAAAAAAAAAAAAAAAAAAAAAAAAAAAAAAAAAAAAAAAAAAAAAAAAAAAAAAAAAAAAAAAAAAAAAAA
         ATOMIC WAVEFUNCTION(S)


 NUCLEAR CHARGE 19.0  SYMMETRY SPECIES            S    P    D
 N. ELECTRONS   17.0  NUMBER OF PRIMITIVE GTOS   14    9    7
                      NUMBER OF CONTRACTED GTOS   4    3    3
                      NUMBER OF CLOSED SHELLS     1    1    0
                      OPEN SHELL OCCUPATION       0    0    9

  ZNUC SCFIT  TOTAL HF ENERGY   KINETIC ENERGY   VIRIAL THEOREM ACCURACY
  19.0  24   -1.953432393E+02  1.248337040E+02 -2.564827712E+00  3.3E-06

 NUCLEAR CHARGE  6.0  SYMMETRY SPECIES            S    P
 N. ELECTRONS    8.0  NUMBER OF PRIMITIVE GTOS   10    9
                      NUMBER OF CONTRACTED GTOS   3    3
                      NUMBER OF CLOSED SHELLS     1    1
                      OPEN SHELL OCCUPATION       0    0

  ZNUC SCFIT  TOTAL HF ENERGY   KINETIC ENERGY   VIRIAL THEOREM ACCURACY
   6.0  43   -1.519668598E+01  1.229882609E+01 -2.235620852E+00  4.1E-06

 AAAAAAAAAAAAAAAAAAAAAAAAAAAAAAAAAAAAAAAAAAAAAAAAAAAAAAAAAAAAAAAAAAAAAAAAAAAAAAA

[golub109:05341] 15 more processes have sent help message help-mpi-btl-openib.txt / no device params found
[golub109:05341] Set MCA parameter "orte_base_help_aggregate" to 0 to see all help / error messages
 CHARGE NORMALIZATION FACTOR   1.00000000
 TOTAL ATOMIC CHARGES:
  17.0000000  17.0000000  17.0000000  17.0000000  17.0000000  17.0000000
  17.0000000  17.0000000   8.0000000   8.0000000   8.0000000   8.0000000
   8.0000000   8.0000000   8.0000000   8.0000000   8.0000000   8.0000000
   8.0000000   8.0000000   8.0000000   8.0000000   8.0000000   8.0000000
   0.0000000   0.0000000   0.0000000   0.0000000   0.0000000   0.0000000
   0.0000000   0.0000000
 SUMMED SPIN DENSITY           4.00000000
 TOTAL ATOMIC SPINS  :
   1.0000000  -1.0000000   1.0000000  -1.0000000   1.0000000   1.0000000
   1.0000000   1.0000000   0.0000000   0.0000000   0.0000000   0.0000000
   0.0000000   0.0000000   0.0000000   0.0000000   0.0000000   0.0000000
   0.0000000   0.0000000   0.0000000   0.0000000   0.0000000   0.0000000
   0.0000000   0.0000000   0.0000000   0.0000000   0.0000000   0.0000000
   0.0000000   0.0000000
 TTTTTTTTTTTTTTTTTTTTTTTTTTTTTT MOQGAD      TELAPSE        5.76 TCPU        4.23
 TTTTTTTTTTTTTTTTTTTTTTTTTTTTTT SHELLXN     TELAPSE      207.14 TCPU      204.45
 TTTTTTTTTTTTTTTTTTTTTTTTTTTTTT MONMO3      TELAPSE      217.82 TCPU      215.13
 NUMERICALLY INTEGRATED DENSITY    134.0001203861    130.0001086787
 TTTTTTTTTTTTTTTTTTTTTTTTTTTTTT NUMDFT      TELAPSE      219.07 TCPU      216.38
 CYC   0 ETOT(AU) -1.841348157515E+03 DETOT -1.84E+03 tst  0.00E+00 PX  1.00E+00
 CYCLE  0 WAVE FUNCTION SAVED IN FORTRAN UNIT 79
 TTTTTTTTTTTTTTTTTTTTTTTTTTTTTT DIIS        TELAPSE      219.51 TCPU      216.66
 TTTTTTTTTTTTTTTTTTTTTTTTTTTTTT FDIK        TELAPSE      253.52 TCPU      250.25
 SPIN LOCKING: NO ENERGY GAP COMPUTED
 TTTTTTTTTTTTTTTTTTTTTTTTTTTTTT PDIG        TELAPSE      255.70 TCPU      252.40
 CHARGE NORMALIZATION FACTOR   1.00000000
 TOTAL ATOMIC CHARGES:
  18.1954901  18.2911818  18.1954925  18.2911818  18.2153821  18.1954902
  18.2153821  18.1954902   7.2999846   7.2999846   7.2999841   7.2999841
   7.3252069   7.3252069   7.3252069   7.3252069   7.3252073   7.2999850
   7.3252074   7.2999850   7.3252073   7.2999850   7.3252074   7.2999850
   0.1504218   0.1504218   0.1504218   0.1504218   0.1504218   0.1504218
   0.1504218   0.1504218
 SUMMED SPIN DENSITY           4.00000000
 TOTAL ATOMIC SPINS  :
   0.4387139  -0.1842440   0.4387139  -0.1842440   0.4522946   0.4387138
   0.4522946   0.4387138   0.0762216   0.0762216   0.0762216   0.0762216
   0.1372750   0.1372750   0.1372750   0.1372750   0.1372749   0.0762216
   0.1372751   0.0762216   0.1372749   0.0762216   0.1372751   0.0762216
   0.0001339   0.0001339   0.0001339   0.0001339   0.0001339   0.0001339
   0.0001339   0.0001339
 TTTTTTTTTTTTTTTTTTTTTTTTTTTTTT MOQGAD      TELAPSE      255.84 TCPU      252.53
 TTTTTTTTTTTTTTTTTTTTTTTTTTTTTT SHELLXN     TELAPSE      473.20 TCPU      467.25
 TTTTTTTTTTTTTTTTTTTTTTTTTTTTTT MONMO3      TELAPSE      481.86 TCPU      475.89
 NUMERICALLY INTEGRATED DENSITY    134.0000969595    130.0000925265
 TTTTTTTTTTTTTTTTTTTTTTTTTTTTTT NUMDFT      TELAPSE      485.82 TCPU      479.86
 CYC   1 ETOT(AU) -1.842276713938E+03 DETOT -9.29E-01 tst  0.00E+00 PX  1.00E+00
 CYCLE  1 WAVE FUNCTION SAVED IN FORTRAN UNIT 79
 TTTTTTTTTTTTTTTTTTTTTTTTTTTTTT DIIS        TELAPSE      488.37 TCPU      482.30
 DIIS TEST: 0.41864E+00 AT SCF   CYCLE   1 - MIX   90 %
 TTTTTTTTTTTTTTTTTTTTTTTTTTTTTT FDIK        TELAPSE      493.99 TCPU      487.90
 SPIN LOCKING: NO ENERGY GAP COMPUTED
 TTTTTTTTTTTTTTTTTTTTTTTTTTTTTT PDIG        TELAPSE      495.54 TCPU      489.45
 CHARGE NORMALIZATION FACTOR   1.00000000
 TOTAL ATOMIC CHARGES:
  18.1731153  18.2243883  18.1731176  18.2243883  18.1659473  18.1731033
  18.1659473  18.1731033   7.3178186   7.3178186   7.3178180   7.3178180
   7.3457798   7.3457798   7.3457798   7.3457798   7.3457759   7.3177902
   7.3457761   7.3177902   7.3457759   7.3177902   7.3457761   7.3177902
   0.1522790   0.1522790   0.1522790   0.1522790   0.1522790   0.1522790
   0.1522790   0.1522790
 SUMMED SPIN DENSITY           4.00000000
 TOTAL ATOMIC SPINS  :
   0.4556136  -0.2128980   0.4556136  -0.2128980   0.4911263   0.4556017
   0.4911263   0.4556017   0.0681797   0.0681797   0.0681800   0.0681800
   0.1344955   0.1344955   0.1344955   0.1344955   0.1344648   0.0681837
   0.1344649   0.0681837   0.1344648   0.0681837   0.1344649   0.0681837
  -0.0000228  -0.0000228  -0.0000228  -0.0000228  -0.0000228  -0.0000228
  -0.0000228  -0.0000228
 TTTTTTTTTTTTTTTTTTTTTTTTTTTTTT MOQGAD      TELAPSE      495.59 TCPU      489.50
 TTTTTTTTTTTTTTTTTTTTTTTTTTTTTT SHELLXN     TELAPSE      713.84 TCPU      704.34
 TTTTTTTTTTTTTTTTTTTTTTTTTTTTTT MONMO3      TELAPSE      722.09 TCPU      712.57
 NUMERICALLY INTEGRATED DENSITY    134.0000941607    130.0000889145
 TTTTTTTTTTTTTTTTTTTTTTTTTTTTTT NUMDFT      TELAPSE      725.94 TCPU      716.42
 CYC   2 ETOT(AU) -1.842316901816E+03 DETOT -4.02E-02 tst  3.92E-04 PX  5.51E-02
 CYCLE  2 WAVE FUNCTION SAVED IN FORTRAN UNIT 79
 TTTTTTTTTTTTTTTTTTTTTTTTTTTTTT DIIS        TELAPSE      728.42 TCPU      718.86
 DIIS TEST: 0.24029E+00 AT SCF   CYCLE   2 - DIIS ACTIVE - HISTORY:     2 CYCLES
 TTTTTTTTTTTTTTTTTTTTTTTTTTTTTT FDIK        TELAPSE      734.12 TCPU      724.55
 SPIN LOCKING: NO ENERGY GAP COMPUTED
 TTTTTTTTTTTTTTTTTTTTTTTTTTTTTT PDIG        TELAPSE      735.64 TCPU      726.07
 CHARGE NORMALIZATION FACTOR   1.00000000
 TOTAL ATOMIC CHARGES:
  17.9672638  18.1453745  17.9672647  18.1453745  17.9672659  17.9666761
  17.9672659  17.9666761   7.4078897   7.4078897   7.4078895   7.4078895
   7.4102279   7.4102279   7.4102279   7.4102279   7.4101827   7.4081181
   7.4101828   7.4081181   7.4101827   7.4081181   7.4101828   7.4081181
   0.1701456   0.1701456   0.1701457   0.1701457   0.1701456   0.1701456
   0.1701457   0.1701457
 SUMMED SPIN DENSITY           4.00000000
 TOTAL ATOMIC SPINS  :
   0.5624295  -0.3454258   0.5624307  -0.3454258   0.6373400   0.5630899
   0.6373400   0.5630899   0.0140144   0.0140144   0.0140149   0.0140149
   0.1330465   0.1330465   0.1330465   0.1330465   0.1331389   0.0137649
   0.1331394   0.0137649   0.1331389   0.0137649   0.1331394   0.0137649
  -0.0013411  -0.0013411  -0.0013412  -0.0013412  -0.0013411  -0.0013411
  -0.0013412  -0.0013412
 TTTTTTTTTTTTTTTTTTTTTTTTTTTTTT MOQGAD      TELAPSE      735.70 TCPU      726.12
 TTTTTTTTTTTTTTTTTTTTTTTTTTTTTT SHELLXN     TELAPSE      952.64 TCPU      940.93
 TTTTTTTTTTTTTTTTTTTTTTTTTTTTTT MONMO3      TELAPSE      963.53 TCPU      951.47
 NUMERICALLY INTEGRATED DENSITY    134.0000673773    130.0000582069
 TTTTTTTTTTTTTTTTTTTTTTTTTTTTTT NUMDFT      TELAPSE      967.39 TCPU      955.32
 CYC   3 ETOT(AU) -1.842400970220E+03 DETOT -8.41E-02 tst  5.40E-03 PX  2.21E-01
 CYCLE  3 WAVE FUNCTION SAVED IN FORTRAN UNIT 79
 TTTTTTTTTTTTTTTTTTTTTTTTTTTTTT DIIS        TELAPSE      969.93 TCPU      957.83
 DIIS TEST: 0.25446E+00 AT SCF   CYCLE   3 - DIIS ACTIVE - HISTORY:     3 CYCLES
 TTTTTTTTTTTTTTTTTTTTTTTTTTTTTT FDIK        TELAPSE      976.18 TCPU      964.07
 SPIN LOCKING: NO ENERGY GAP COMPUTED
 TTTTTTTTTTTTTTTTTTTTTTTTTTTTTT PDIG        TELAPSE      977.70 TCPU      965.60
 CHARGE NORMALIZATION FACTOR   1.00000000
 TOTAL ATOMIC CHARGES:
  18.0635315  17.9583450  18.0635323  17.9583450  18.0081923  18.0635661
  18.0081923  18.0635661   7.3949335   7.3949335   7.3949332   7.3949332
   7.4165009   7.4165009   7.4165009   7.4165009   7.4165020   7.3949119
   7.4165023   7.3949119   7.4165020   7.3949119   7.4165023   7.3949119
   0.1651670   0.1651670   0.1651670   0.1651670   0.1651670   0.1651670
   0.1651670   0.1651670
 SUMMED SPIN DENSITY           4.00000000
 TOTAL ATOMIC SPINS  :
   0.5513966  -0.4476336   0.5513981  -0.4476336   0.6549730   0.5513255
   0.6549730   0.5513255   0.0318623   0.0318623   0.0318629   0.0318629
   0.1417715   0.1417715   0.1417715   0.1417715   0.1417760   0.0318457
   0.1417762   0.0318457   0.1417760   0.0318457   0.1417762   0.0318457
  -0.0011436  -0.0011436  -0.0011436  -0.0011436  -0.0011436  -0.0011436
  -0.0011436  -0.0011436
 TTTTTTTTTTTTTTTTTTTTTTTTTTTTTT MOQGAD      TELAPSE      977.76 TCPU      965.65
 TTTTTTTTTTTTTTTTTTTTTTTTTTTTTT SHELLXN     TELAPSE     1194.46 TCPU     1180.24
 TTTTTTTTTTTTTTTTTTTTTTTTTTTTTT MONMO3      TELAPSE     1203.75 TCPU     1189.50
 NUMERICALLY INTEGRATED DENSITY    134.0000702151    130.0000621799
 TTTTTTTTTTTTTTTTTTTTTTTTTTTTTT NUMDFT      TELAPSE     1207.61 TCPU     1193.36
 CYC   4 ETOT(AU) -1.842412483969E+03 DETOT -1.15E-02 tst  5.06E-03 PX  1.50E-01
 CYCLE  4 WAVE FUNCTION SAVED IN FORTRAN UNIT 79
 TTTTTTTTTTTTTTTTTTTTTTTTTTTTTT DIIS        TELAPSE     1210.09 TCPU     1195.80
 DIIS TEST: 0.26802E+00 AT SCF   CYCLE   4 - DIIS ACTIVE - HISTORY:     4 CYCLES
 TTTTTTTTTTTTTTTTTTTTTTTTTTTTTT FDIK        TELAPSE     1216.25 TCPU     1201.89
 SPIN LOCKING: NO ENERGY GAP COMPUTED
 TTTTTTTTTTTTTTTTTTTTTTTTTTTTTT PDIG        TELAPSE     1217.78 TCPU     1203.42
 CHARGE NORMALIZATION FACTOR   1.00000000
 TOTAL ATOMIC CHARGES:
  17.9905088  18.0309100  17.9905099  18.0309100  17.9708622  17.9905133
  17.9708622  17.9905133   7.4085692   7.4085692   7.4085691   7.4085691
   7.4323314   7.4323314   7.4323314   7.4323314   7.4322885   7.4085630
   7.4322887   7.4085630   7.4322885   7.4085630   7.4322887   7.4085630
   0.1634252   0.1634252   0.1634252   0.1634252   0.1634252   0.1634252
   0.1634252   0.1634252
 SUMMED SPIN DENSITY           4.00000000
 TOTAL ATOMIC SPINS  :
   0.6124375  -0.4778679   0.6124387  -0.4778679   0.6958077   0.6124559
   0.6958077   0.6124559   0.0121269   0.0121269   0.0121275   0.0121275
   0.1284155   0.1284155   0.1284155   0.1284155   0.1284558   0.0121538
   0.1284561   0.0121538   0.1284558   0.0121538   0.1284561   0.0121538
  -0.0012847  -0.0012847  -0.0012847  -0.0012847  -0.0012847  -0.0012847
  -0.0012847  -0.0012847
 TTTTTTTTTTTTTTTTTTTTTTTTTTTTTT MOQGAD      TELAPSE     1217.83 TCPU     1203.47
 TTTTTTTTTTTTTTTTTTTTTTTTTTTTTT SHELLXN     TELAPSE     1434.20 TCPU     1418.07
 TTTTTTTTTTTTTTTTTTTTTTTTTTTTTT MONMO3      TELAPSE     1444.81 TCPU     1428.66
 NUMERICALLY INTEGRATED DENSITY    134.0000719514    130.0000623899
 TTTTTTTTTTTTTTTTTTTTTTTTTTTTTT NUMDFT      TELAPSE     1448.68 TCPU     1432.53
 CYC   5 ETOT(AU) -1.842442389024E+03 DETOT -2.99E-02 tst  2.81E-03 PX  7.13E-02
 CYCLE  5 WAVE FUNCTION SAVED IN FORTRAN UNIT 79
 TTTTTTTTTTTTTTTTTTTTTTTTTTTTTT DIIS        TELAPSE     1451.13 TCPU     1434.94
 DIIS TEST: 0.53560E-01 AT SCF   CYCLE   5 - DIIS ACTIVE - HISTORY:     5 CYCLES
 TTTTTTTTTTTTTTTTTTTTTTTTTTTTTT FDIK        TELAPSE     1457.32 TCPU     1441.13
 SPIN LOCKING: NO ENERGY GAP COMPUTED
 TTTTTTTTTTTTTTTTTTTTTTTTTTTTTT PDIG        TELAPSE     1458.85 TCPU     1442.66
 CHARGE NORMALIZATION FACTOR   1.00000000
 TOTAL ATOMIC CHARGES:
  18.0122022  18.0194641  18.0122047  18.0194641  17.9862946  18.0121946
  17.9862946  18.0121946   7.4080201   7.4080201   7.4080196   7.4080196
   7.4184248   7.4184248   7.4184248   7.4184248   7.4184105   7.4080250
   7.4184105   7.4080250   7.4184105   7.4080250   7.4184105   7.4080250
   0.1660207   0.1660207   0.1660208   0.1660208   0.1660207   0.1660207
   0.1660208   0.1660208
 SUMMED SPIN DENSITY           4.00000000
 TOTAL ATOMIC SPINS  :
   0.6193871  -0.5093544   0.6193870  -0.5093544   0.6986703   0.6193942
   0.6986703   0.6193942   0.0133452   0.0133452   0.0133463   0.0133463
   0.1309234   0.1309234   0.1309234   0.1309234   0.1309031   0.0133489
   0.1309036   0.0133489   0.1309031   0.0133489   0.1309036   0.0133489
  -0.0012849  -0.0012849  -0.0012850  -0.0012850  -0.0012849  -0.0012849
  -0.0012850  -0.0012850
 TTTTTTTTTTTTTTTTTTTTTTTTTTTTTT MOQGAD      TELAPSE     1458.90 TCPU     1442.71
 TTTTTTTTTTTTTTTTTTTTTTTTTTTTTT SHELLXN     TELAPSE     1675.82 TCPU     1657.32
 TTTTTTTTTTTTTTTTTTTTTTTTTTTTTT MONMO3      TELAPSE     1684.47 TCPU     1665.93
 NUMERICALLY INTEGRATED DENSITY    134.0000706268    130.0000613307
 TTTTTTTTTTTTTTTTTTTTTTTTTTTTTT NUMDFT      TELAPSE     1688.34 TCPU     1669.80
 CYC   6 ETOT(AU) -1.842449499402E+03 DETOT -7.11E-03 tst  2.79E-04 PX  4.19E-02
 CYCLE  6 WAVE FUNCTION SAVED IN FORTRAN UNIT 79
 TTTTTTTTTTTTTTTTTTTTTTTTTTTTTT DIIS        TELAPSE     1690.88 TCPU     1672.34
 DIIS TEST: 0.11178E-01 AT SCF   CYCLE   6 - DIIS ACTIVE - HISTORY:     6 CYCLES
 TTTTTTTTTTTTTTTTTTTTTTTTTTTTTT FDIK        TELAPSE     1696.74 TCPU     1678.16
 SPIN LOCKING: NO ENERGY GAP COMPUTED
 TTTTTTTTTTTTTTTTTTTTTTTTTTTTTT PDIG        TELAPSE     1698.27 TCPU     1679.69
 CHARGE NORMALIZATION FACTOR   1.00000000
 TOTAL ATOMIC CHARGES:
  18.0030930  18.0193039  18.0030952  18.0193039  17.9822477  18.0030777
  17.9822477  18.0030777   7.4072302   7.4072302   7.4072296   7.4072296
   7.4246746   7.4246746   7.4246746   7.4246746   7.4246739   7.4072467
   7.4246741   7.4072467   7.4246739   7.4072467   7.4246741   7.4072467
   0.1661565   0.1661565   0.1661565   0.1661565   0.1661565   0.1661565
   0.1661565   0.1661565
 SUMMED SPIN DENSITY           4.00000000
 TOTAL ATOMIC SPINS  :
   0.6398436  -0.5445598   0.6398435  -0.5445598   0.7105593   0.6398345
   0.7105593   0.6398345   0.0112523   0.0112523   0.0112531   0.0112531
   0.1286397   0.1286397   0.1286397   0.1286397   0.1286448   0.0112399
   0.1286453   0.0112399   0.1286448   0.0112399   0.1286453   0.0112399
  -0.0013081  -0.0013081  -0.0013081  -0.0013081  -0.0013081  -0.0013081
  -0.0013081  -0.0013081
 TTTTTTTTTTTTTTTTTTTTTTTTTTTTTT MOQGAD      TELAPSE     1698.32 TCPU     1679.74
 TTTTTTTTTTTTTTTTTTTTTTTTTTTTTT SHELLXN     TELAPSE     1914.37 TCPU     1894.41
 TTTTTTTTTTTTTTTTTTTTTTTTTTTTTT MONMO3      TELAPSE     1923.95 TCPU     1903.99
 NUMERICALLY INTEGRATED DENSITY    134.0000713680    130.0000618888
 TTTTTTTTTTTTTTTTTTTTTTTTTTTTTT NUMDFT      TELAPSE     1927.80 TCPU     1907.84
 CYC   7 ETOT(AU) -1.842452126722E+03 DETOT -2.63E-03 tst  4.68E-04 PX  4.92E-02
 CYCLE  7 WAVE FUNCTION SAVED IN FORTRAN UNIT 79
 TTTTTTTTTTTTTTTTTTTTTTTTTTTTTT DIIS        TELAPSE     1930.32 TCPU     1910.33
 DIIS TEST: 0.35315E-02 AT SCF   CYCLE   7 - DIIS ACTIVE - HISTORY:     7 CYCLES
 TTTTTTTTTTTTTTTTTTTTTTTTTTTTTT FDIK        TELAPSE     1936.12 TCPU     1916.06
 SPIN LOCKING: NO ENERGY GAP COMPUTED
 TTTTTTTTTTTTTTTTTTTTTTTTTTTTTT PDIG        TELAPSE     1937.65 TCPU     1917.59
 CHARGE NORMALIZATION FACTOR   1.00000000
 TOTAL ATOMIC CHARGES:
  18.0000897  18.0160660  18.0000914  18.0160660  17.9836371  18.0000916
  17.9836371  18.0000916   7.4131155   7.4131155   7.4131155   7.4131155
   7.4212577   7.4212577   7.4212577   7.4212577   7.4212510   7.4131161
   7.4212515   7.4131161   7.4212510   7.4131161   7.4212515   7.4131161
   0.1656584   0.1656584   0.1656584   0.1656584   0.1656584   0.1656584
   0.1656584   0.1656584
 SUMMED SPIN DENSITY           4.00000000
 TOTAL ATOMIC SPINS  :
   0.6474025  -0.5558070   0.6474029  -0.5558070   0.7127677   0.6474011
   0.7127677   0.6474011   0.0101304   0.0101304   0.0101306   0.0101306
   0.1282053   0.1282053   0.1282053   0.1282053   0.1282124   0.0101220
   0.1282125   0.0101220   0.1282124   0.0101220   0.1282125   0.0101220
  -0.0012763  -0.0012763  -0.0012763  -0.0012763  -0.0012763  -0.0012763
  -0.0012763  -0.0012763
 TTTTTTTTTTTTTTTTTTTTTTTTTTTTTT MOQGAD      TELAPSE     1937.71 TCPU     1917.65
 TTTTTTTTTTTTTTTTTTTTTTTTTTTTTT SHELLXN     TELAPSE     2155.77 TCPU     2132.34
 TTTTTTTTTTTTTTTTTTTTTTTTTTTTTT MONMO3      TELAPSE     2162.67 TCPU     2139.15
 NUMERICALLY INTEGRATED DENSITY    134.0000719144    130.0000624645
 TTTTTTTTTTTTTTTTTTTTTTTTTTTTTT NUMDFT      TELAPSE     2166.54 TCPU     2143.02
 CYC   8 ETOT(AU) -1.842452567045E+03 DETOT -4.40E-04 tst  2.64E-05 PX  1.47E-02
 CYCLE  8 WAVE FUNCTION SAVED IN FORTRAN UNIT 79
 TTTTTTTTTTTTTTTTTTTTTTTTTTTTTT DIIS        TELAPSE     2168.97 TCPU     2145.39
 DIIS TEST: 0.13042E-02 AT SCF   CYCLE   8 - DIIS ACTIVE - HISTORY:     8 CYCLES
 TTTTTTTTTTTTTTTTTTTTTTTTTTTTTT FDIK        TELAPSE     2175.33 TCPU     2151.75
 SPIN LOCKING: NO ENERGY GAP COMPUTED
 TTTTTTTTTTTTTTTTTTTTTTTTTTTTTT PDIG        TELAPSE     2176.87 TCPU     2153.27
 CHARGE NORMALIZATION FACTOR   1.00000000
 TOTAL ATOMIC CHARGES:
  18.0000946  18.0208330  18.0000966  18.0208330  17.9848619  18.0000994
  17.9848619  18.0000994   7.4107393   7.4107393   7.4107393   7.4107393
   7.4218418   7.4218418   7.4218418   7.4218418   7.4218410   7.4107400
   7.4218413   7.4107400   7.4218410   7.4107400   7.4218413   7.4107400
   0.1659464   0.1659464   0.1659464   0.1659464   0.1659464   0.1659464
   0.1659464   0.1659464
 SUMMED SPIN DENSITY           4.00000000
 TOTAL ATOMIC SPINS  :
   0.6504953  -0.5581226   0.6504956  -0.5581226   0.7142243   0.6504959
   0.7142243   0.6504959   0.0095312   0.0095312   0.0095314   0.0095314
   0.1274436   0.1274436   0.1274436   0.1274436   0.1274463   0.0095340
   0.1274464   0.0095340   0.1274463   0.0095340   0.1274464   0.0095340
  -0.0012509  -0.0012509  -0.0012509  -0.0012509  -0.0012509  -0.0012509
  -0.0012509  -0.0012509
[...]
 CYCLE 12 WAVE FUNCTION SAVED IN FORTRAN UNIT 79
 TTTTTTTTTTTTTTTTTTTTTTTTTTTTTT DIIS        TELAPSE     3128.25 TCPU     3094.19
 DIIS TEST: 0.78038E-06 AT SCF   CYCLE  12 - DIIS ACTIVE - HISTORY:    12 CYCLES
 TTTTTTTTTTTTTTTTTTTTTTTTTTTTTT FDIK        TELAPSE     3134.75 TCPU     3100.62
 SPIN LOCKING: NO ENERGY GAP COMPUTED
 TTTTTTTTTTTTTTTTTTTTTTTTTTTTTT PDIG        TELAPSE     3136.32 TCPU     3102.19
 CHARGE NORMALIZATION FACTOR   1.00000000
 TOTAL ATOMIC CHARGES:
  17.9993229  18.0215010  17.9993252  18.0215010  17.9843119  17.9993214
  17.9843119  17.9993214   7.4110756   7.4110756   7.4110753   7.4110753
   7.4219027   7.4219027   7.4219027   7.4219027   7.4219030   7.4110766
   7.4219032   7.4110766   7.4219030   7.4110766   7.4219032   7.4110766
   0.1659065   0.1659065   0.1659065   0.1659065   0.1659065   0.1659065
   0.1659065   0.1659065
 SUMMED SPIN DENSITY           4.00000000
 TOTAL ATOMIC SPINS  :
   0.6517503  -0.5586924   0.6517501  -0.5586924   0.7142798   0.6517510
   0.7142798   0.6517510   0.0092874   0.0092874   0.0092873   0.0092873
   0.1271550   0.1271550   0.1271550   0.1271550   0.1271549   0.0092871
   0.1271553   0.0092871   0.1271549   0.0092871   0.1271553   0.0092871
  -0.0012144  -0.0012144  -0.0012144  -0.0012144  -0.0012144  -0.0012144
  -0.0012144  -0.0012144
 TTTTTTTTTTTTTTTTTTTTTTTTTTTTTT MOQGAD      TELAPSE     3136.37 TCPU     3102.24
 TTTTTTTTTTTTTTTTTTTTTTTTTTTTTT SHELLXN     TELAPSE     3354.42 TCPU     3316.87
 TTTTTTTTTTTTTTTTTTTTTTTTTTTTTT MONMO3      TELAPSE     3362.99 TCPU     3325.32
 NUMERICALLY INTEGRATED DENSITY    134.0000719303    130.0000624658
 TTTTTTTTTTTTTTTTTTTTTTTTTTTTTT NUMDFT      TELAPSE     3366.87 TCPU     3329.19
 CYC  13 ETOT(AU) -1.842452730660E+03 DETOT -1.24E-07 tst  2.81E-09 PX  1.05E-04
 CYCLE 13 WAVE FUNCTION SAVED IN FORTRAN UNIT 79
 TTTTTTTTTTTTTTTTTTTTTTTTTTTTTT DIIS        TELAPSE     3369.45 TCPU     3331.73
 DIIS TEST: 0.41784E-07 AT SCF   CYCLE  13 - DIIS ACTIVE - HISTORY:    13 CYCLES
 TTTTTTTTTTTTTTTTTTTTTTTTTTTTTT FDIK        TELAPSE     3376.06 TCPU     3338.27
 SPIN LOCKING: NO ENERGY GAP COMPUTED
 TTTTTTTTTTTTTTTTTTTTTTTTTTTTTT PDIG        TELAPSE     3377.59 TCPU     3339.79
 CHARGE NORMALIZATION FACTOR   1.00000000
 TOTAL ATOMIC CHARGES:
  17.9993145  18.0214834  17.9993167  18.0214834  17.9843261  17.9993190
  17.9843261  17.9993190   7.4110776   7.4110776   7.4110773   7.4110773
   7.4219046   7.4219046   7.4219046   7.4219046   7.4219055   7.4110773
   7.4219057   7.4110773   7.4219055   7.4110773   7.4219057   7.4110773
   0.1659065   0.1659065   0.1659065   0.1659065   0.1659065   0.1659065
   0.1659065   0.1659065
 SUMMED SPIN DENSITY           4.00000000
 TOTAL ATOMIC SPINS  :
   0.6517771  -0.5586699   0.6517770  -0.5586699   0.7142913   0.6517749
   0.7142913   0.6517749   0.0092798   0.0092798   0.0092797   0.0092797
   0.1271385   0.1271385   0.1271385   0.1271385   0.1271381   0.0092803
   0.1271384   0.0092803   0.1271381   0.0092803   0.1271384   0.0092803
  -0.0012118  -0.0012118  -0.0012118  -0.0012118  -0.0012118  -0.0012118
  -0.0012118  -0.0012118
 TTTTTTTTTTTTTTTTTTTTTTTTTTTTTT MOQGAD      TELAPSE     3377.64 TCPU     3339.84
 TTTTTTTTTTTTTTTTTTTTTTTTTTTTTT SHELLXN     TELAPSE     3593.84 TCPU     3554.49
 TTTTTTTTTTTTTTTTTTTTTTTTTTTTTT MONMO3      TELAPSE     3603.55 TCPU     3564.11
 NUMERICALLY INTEGRATED DENSITY    134.0000719275    130.0000624665
 TTTTTTTTTTTTTTTTTTTTTTTTTTTTTT NUMDFT      TELAPSE     3607.41 TCPU     3567.97
 CYC  14 ETOT(AU) -1.842452730667E+03 DETOT -6.98E-09 tst  1.72E-09 PX  9.11E-05
 CYCLE 14 WAVE FUNCTION SAVED IN FORTRAN UNIT 79
 TTTTTTTTTTTTTTTTTTTTTTTTTTTTTT DIIS        TELAPSE     3609.98 TCPU     3570.47
 DIIS TEST: 0.11316E-07 AT SCF   CYCLE  14 - DIIS ACTIVE - HISTORY:    14 CYCLES
 TTTTTTTTTTTTTTTTTTTTTTTTTTTTTT FDIK        TELAPSE     3615.75 TCPU     3576.19
 SPIN LOCKING: NO ENERGY GAP COMPUTED
 TTTTTTTTTTTTTTTTTTTTTTTTTTTTTT PDIG        TELAPSE     3617.28 TCPU     3577.71
 CHARGE NORMALIZATION FACTOR   1.00000000
 TOTAL ATOMIC CHARGES:
  17.9993316  18.0214722  17.9993337  18.0214722  17.9843241  17.9993096
  17.9843241  17.9993096   7.4110759   7.4110759   7.4110756   7.4110756
   7.4219071   7.4219071   7.4219071   7.4219071   7.4219046   7.4110806
   7.4219049   7.4110806   7.4219046   7.4110806   7.4219049   7.4110806
   0.1659063   0.1659063   0.1659063   0.1659063   0.1659063   0.1659063
   0.1659063   0.1659063
 SUMMED SPIN DENSITY           4.00000000
 TOTAL ATOMIC SPINS  :
   0.6517859  -0.5586624   0.6517859  -0.5586624   0.7143044   0.6517955
   0.7143044   0.6517955   0.0092762   0.0092762   0.0092762   0.0092762
   0.1271286   0.1271286   0.1271286   0.1271286   0.1271299   0.0092741
   0.1271301   0.0092741   0.1271299   0.0092741   0.1271301   0.0092741
  -0.0012102  -0.0012102  -0.0012102  -0.0012102  -0.0012102  -0.0012102
  -0.0012102  -0.0012102
 TTTTTTTTTTTTTTTTTTTTTTTTTTTTTT MOQGAD      TELAPSE     3617.34 TCPU     3577.76
 TTTTTTTTTTTTTTTTTTTTTTTTTTTTTT SHELLXN     TELAPSE     3833.84 TCPU     3792.38
 TTTTTTTTTTTTTTTTTTTTTTTTTTTTTT MONMO3      TELAPSE     3842.52 TCPU     3801.03
 NUMERICALLY INTEGRATED DENSITY    134.0000719263    130.0000624675
 TTTTTTTTTTTTTTTTTTTTTTTTTTTTTT NUMDFT      TELAPSE     3846.59 TCPU     3805.09
 CYC  15 ETOT(AU) -1.842452730678E+03 DETOT -1.04E-08 tst  1.37E-09 PX  7.88E-05
 CYCLE 15 WAVE FUNCTION SAVED IN FORTRAN UNIT 79
 TTTTTTTTTTTTTTTTTTTTTTTTTTTTTT DIIS        TELAPSE     3849.69 TCPU     3807.95
 DIIS TEST: 0.71894E-08 AT SCF   CYCLE  15 - DIIS ACTIVE - HISTORY:    15 CYCLES
 TTTTTTTTTTTTTTTTTTTTTTTTTTTTTT FDIK        TELAPSE     3855.26 TCPU     3813.45
 SPIN LOCKING: NO ENERGY GAP COMPUTED
 TTTTTTTTTTTTTTTTTTTTTTTTTTTTTT PDIG        TELAPSE     3856.79 TCPU     3814.98
 CHARGE NORMALIZATION FACTOR   1.00000000
 TOTAL ATOMIC CHARGES:
  17.9993086  18.0214725  17.9993107  18.0214725  17.9843262  17.9993296
  17.9843262  17.9993296   7.4110800   7.4110800   7.4110796   7.4110796
   7.4219043   7.4219043   7.4219043   7.4219043   7.4219074   7.4110769
   7.4219077   7.4110769   7.4219074   7.4110769   7.4219077   7.4110769
   0.1659063   0.1659063   0.1659062   0.1659062   0.1659063   0.1659063
   0.1659062   0.1659062
 SUMMED SPIN DENSITY           4.00000000
 TOTAL ATOMIC SPINS  :
   0.6517972  -0.5586595   0.6517971  -0.5586595   0.7143076   0.6517881
   0.7143076   0.6517881   0.0092730   0.0092730   0.0092730   0.0092730
   0.1271282   0.1271282   0.1271282   0.1271282   0.1271269   0.0092751
   0.1271271   0.0092751   0.1271269   0.0092751   0.1271271   0.0092751
  -0.0012099  -0.0012099  -0.0012099  -0.0012099  -0.0012099  -0.0012099
  -0.0012099  -0.0012099
 TTTTTTTTTTTTTTTTTTTTTTTTTTTTTT MOQGAD      TELAPSE     3856.84 TCPU     3815.03
 TTTTTTTTTTTTTTTTTTTTTTTTTTTTTT SHELLXN     TELAPSE     4072.44 TCPU     4029.47
 TTTTTTTTTTTTTTTTTTTTTTTTTTTTTT MONMO3      TELAPSE     4082.20 TCPU     4039.23
 NUMERICALLY INTEGRATED DENSITY    134.0000719261    130.0000624678
 TTTTTTTTTTTTTTTTTTTTTTTTTTTTTT NUMDFT      TELAPSE     4086.10 TCPU     4043.13
 CYC  16 ETOT(AU) -1.842452730679E+03 DETOT -1.70E-09 tst  1.33E-10 PX  2.42E-05
 CYCLE 16 WAVE FUNCTION SAVED IN FORTRAN UNIT 79
 TTTTTTTTTTTTTTTTTTTTTTTTTTTTTT DIIS        TELAPSE     4088.74 TCPU     4045.70
 DIIS TEST: 0.51237E-08 AT SCF   CYCLE  16 - DIIS ACTIVE - HISTORY:    16 CYCLES
 TTTTTTTTTTTTTTTTTTTTTTTTTTTTTT FDIK        TELAPSE     4094.56 TCPU     4051.45
 SPIN LOCKING: NO ENERGY GAP COMPUTED
 TTTTTTTTTTTTTTTTTTTTTTTTTTTTTT PDIG        TELAPSE     4096.12 TCPU     4053.00
 CHARGE NORMALIZATION FACTOR   1.00000000
 TOTAL ATOMIC CHARGES:
  17.9993194  18.0214731  17.9993216  18.0214731  17.9843284  17.9993161
  17.9843284  17.9993161   7.4110781   7.4110781   7.4110778   7.4110778
   7.4219059   7.4219059   7.4219059   7.4219059   7.4219057   7.4110787
   7.4219059   7.4110787   7.4219057   7.4110787   7.4219059   7.4110787
   0.1659063   0.1659063   0.1659063   0.1659063   0.1659063   0.1659063
   0.1659063   0.1659063
 SUMMED SPIN DENSITY           4.00000000
 TOTAL ATOMIC SPINS  :
   0.6517921  -0.5586559   0.6517920  -0.5586559   0.7143108   0.6517933
   0.7143108   0.6517933   0.0092733   0.0092733   0.0092732   0.0092732
   0.1271266   0.1271266   0.1271266   0.1271266   0.1271267   0.0092729
   0.1271269   0.0092729   0.1271267   0.0092729   0.1271269   0.0092729
  -0.0012099  -0.0012099  -0.0012099  -0.0012099  -0.0012099  -0.0012099
  -0.0012099  -0.0012099
 TTTTTTTTTTTTTTTTTTTTTTTTTTTTTT MOQGAD      TELAPSE     4096.17 TCPU     4053.05
 TTTTTTTTTTTTTTTTTTTTTTTTTTTTTT SHELLXN     TELAPSE     4312.42 TCPU     4267.80
 TTTTTTTTTTTTTTTTTTTTTTTTTTTTTT MONMO3      TELAPSE     4323.31 TCPU     4278.57
 NUMERICALLY INTEGRATED DENSITY    134.0000719260    130.0000624679
 TTTTTTTTTTTTTTTTTTTTTTTTTTTTTT NUMDFT      TELAPSE     4327.16 TCPU     4282.42
 CYC  17 ETOT(AU) -1.842452730680E+03 DETOT -1.11E-09 tst  1.81E-10 PX  2.80E-05
 CYCLE 17 WAVE FUNCTION SAVED IN FORTRAN UNIT 79
 TTTTTTTTTTTTTTTTTTTTTTTTTTTTTT DIIS        TELAPSE     4329.79 TCPU     4285.01
 DIIS TEST: 0.57066E-09 AT SCF   CYCLE  17 - DIIS ACTIVE - HISTORY:    17 CYCLES
 TTTTTTTTTTTTTTTTTTTTTTTTTTTTTT FDIK        TELAPSE     4336.46 TCPU     4291.66
 SPIN LOCKING: NO ENERGY GAP COMPUTED
 TTTTTTTTTTTTTTTTTTTTTTTTTTTTTT PDIG        TELAPSE     4338.02 TCPU     4293.21
 CHARGE NORMALIZATION FACTOR   1.00000000
 TOTAL ATOMIC CHARGES:
  17.9993198  18.0214706  17.9993220  18.0214706  17.9843269  17.9993201
  17.9843269  17.9993201   7.4110779   7.4110779   7.4110775   7.4110775
   7.4219053   7.4219053   7.4219053   7.4219053   7.4219059   7.4110791
   7.4219062   7.4110791   7.4219059   7.4110791   7.4219062   7.4110791
   0.1659063   0.1659063   0.1659063   0.1659063   0.1659063   0.1659063
   0.1659063   0.1659063
 SUMMED SPIN DENSITY           4.00000000
 TOTAL ATOMIC SPINS  :
   0.6517919  -0.5586549   0.6517918  -0.5586549   0.7143119   0.6517916
   0.7143119   0.6517916   0.0092729   0.0092729   0.0092728   0.0092728
   0.1271270   0.1271270   0.1271270   0.1271270   0.1271269   0.0092729
   0.1271270   0.0092729   0.1271269   0.0092729   0.1271270   0.0092729
  -0.0012100  -0.0012100  -0.0012100  -0.0012100  -0.0012100  -0.0012100
  -0.0012100  -0.0012100
 TTTTTTTTTTTTTTTTTTTTTTTTTTTTTT MOQGAD      TELAPSE     4338.07 TCPU     4293.26
 TTTTTTTTTTTTTTTTTTTTTTTTTTTTTT SHELLXN     TELAPSE     4553.35 TCPU     4507.80
 TTTTTTTTTTTTTTTTTTTTTTTTTTTTTT MONMO3      TELAPSE     4563.86 TCPU     4518.21
 NUMERICALLY INTEGRATED DENSITY    134.0000719261    130.0000624679
 TTTTTTTTTTTTTTTTTTTTTTTTTTTTTT NUMDFT      TELAPSE     4567.72 TCPU     4522.06
 CYC  18 ETOT(AU) -1.842452730681E+03 DETOT -6.58E-10 tst  5.38E-11 PX  1.49E-05
 CYCLE 18 WAVE FUNCTION SAVED IN FORTRAN UNIT 79
 TTTTTTTTTTTTTTTTTTTTTTTTTTTTTT DIIS        TELAPSE     4570.20 TCPU     4524.46
 DIIS TEST: 0.15588E-09 AT SCF   CYCLE  18 - DIIS ACTIVE - HISTORY:    18 CYCLES
 TTTTTTTTTTTTTTTTTTTTTTTTTTTTTT FDIK        TELAPSE     4575.85 TCPU     4530.01
 SPIN LOCKING: NO ENERGY GAP COMPUTED
 TTTTTTTTTTTTTTTTTTTTTTTTTTTTTT PDIG        TELAPSE     4577.39 TCPU     4531.52
 CHARGE NORMALIZATION FACTOR   1.00000000
 TOTAL ATOMIC CHARGES:
  17.9993191  18.0214715  17.9993213  18.0214715  17.9843275  17.9993189
  17.9843275  17.9993189   7.4110788   7.4110788   7.4110785   7.4110785
   7.4219056   7.4219056   7.4219056   7.4219056   7.4219056   7.4110784
   7.4219058   7.4110784   7.4219056   7.4110784   7.4219058   7.4110784
   0.1659063   0.1659063   0.1659063   0.1659063   0.1659063   0.1659063
   0.1659063   0.1659063
 SUMMED SPIN DENSITY           4.00000000
 TOTAL ATOMIC SPINS  :
   0.6517909  -0.5586548   0.6517909  -0.5586548   0.7143121   0.6517908
   0.7143121   0.6517908   0.0092729   0.0092729   0.0092728   0.0092728
   0.1271275   0.1271275   0.1271275   0.1271275   0.1271275   0.0092728
   0.1271276   0.0092728   0.1271275   0.0092728   0.1271276   0.0092728
  -0.0012101  -0.0012101  -0.0012101  -0.0012101  -0.0012101  -0.0012101
  -0.0012101  -0.0012101
 TTTTTTTTTTTTTTTTTTTTTTTTTTTTTT MOQGAD      TELAPSE     4577.45 TCPU     4531.57
 TTTTTTTTTTTTTTTTTTTTTTTTTTTTTT SHELLXN     TELAPSE     4794.85 TCPU     4746.25
 TTTTTTTTTTTTTTTTTTTTTTTTTTTTTT MONMO3      TELAPSE     4802.35 TCPU     4753.67
 NUMERICALLY INTEGRATED DENSITY    134.0000719262    130.0000624679
 TTTTTTTTTTTTTTTTTTTTTTTTTTTTTT NUMDFT      TELAPSE     4806.21 TCPU     4757.53
 CYC  19 ETOT(AU) -1.842452730682E+03 DETOT -5.80E-10 tst  2.43E-11 PX  9.89E-06
 CYCLE 19 WAVE FUNCTION SAVED IN FORTRAN UNIT 79
 TTTTTTTTTTTTTTTTTTTTTTTTTTTTTT DIIS        TELAPSE     4808.81 TCPU     4760.08
 DIIS TEST: 0.61612E-10 AT SCF   CYCLE  19 - DIIS ACTIVE - HISTORY:    19 CYCLES
 TTTTTTTTTTTTTTTTTTTTTTTTTTTTTT FDIK        TELAPSE     4814.66 TCPU     4765.90
 SPIN LOCKING: NO ENERGY GAP COMPUTED
 TTTTTTTTTTTTTTTTTTTTTTTTTTTTTT PDIG        TELAPSE     4816.22 TCPU     4767.44
 CHARGE NORMALIZATION FACTOR   1.00000000
 TOTAL ATOMIC CHARGES:
  17.9993188  18.0214717  17.9993211  18.0214717  17.9843276  17.9993188
  17.9843276  17.9993188   7.4110779   7.4110779   7.4110776   7.4110776
   7.4219053   7.4219053   7.4219053   7.4219053   7.4219059   7.4110793
   7.4219061   7.4110793   7.4219059   7.4110793   7.4219061   7.4110793
   0.1659063   0.1659063   0.1659063   0.1659063   0.1659063   0.1659063
   0.1659063   0.1659063
 SUMMED SPIN DENSITY           4.00000000
 TOTAL ATOMIC SPINS  :
   0.6517906  -0.5586551   0.6517906  -0.5586551   0.7143119   0.6517905
   0.7143119   0.6517905   0.0092729   0.0092729   0.0092728   0.0092728
   0.1271278   0.1271278   0.1271278   0.1271278   0.1271277   0.0092729
   0.1271278   0.0092729   0.1271277   0.0092729   0.1271278   0.0092729
  -0.0012101  -0.0012101  -0.0012101  -0.0012101  -0.0012101  -0.0012101
  -0.0012101  -0.0012101
 TTTTTTTTTTTTTTTTTTTTTTTTTTTTTT MOQGAD      TELAPSE     4816.27 TCPU     4767.49
 TTTTTTTTTTTTTTTTTTTTTTTTTTTTTT SHELLXN     TELAPSE     5032.21 TCPU     4982.16
 TTTTTTTTTTTTTTTTTTTTTTTTTTTTTT MONMO3      TELAPSE     5041.11 TCPU     4991.00
 NUMERICALLY INTEGRATED DENSITY    134.0000719263    130.0000624679
 TTTTTTTTTTTTTTTTTTTTTTTTTTTTTT NUMDFT      TELAPSE     5045.08 TCPU     4994.96
 CYC  20 ETOT(AU) -1.842452730682E+03 DETOT -1.33E-10 tst  1.31E-12 PX  2.13E-06
 CYCLE 20 WAVE FUNCTION SAVED IN FORTRAN UNIT 79
 TTTTTTTTTTTTTTTTTTTTTTTTTTTTTT DIIS        TELAPSE     5047.65 TCPU     4997.49
 DIIS TEST: 0.38807E-10 AT SCF   CYCLE  20 - DIIS ACTIVE - HISTORY:    20 CYCLES
 TTTTTTTTTTTTTTTTTTTTTTTTTTTTTT FDIK        TELAPSE     5052.56 TCPU     5002.38
 SPIN LOCKING: NO ENERGY GAP COMPUTED
 TTTTTTTTTTTTTTTTTTTTTTTTTTTTTT PDIG        TELAPSE     5054.11 TCPU     5003.93
 CHARGE NORMALIZATION FACTOR   1.00000000
 TOTAL ATOMIC CHARGES:
  17.9993190  18.0214717  17.9993212  18.0214717  17.9843276  17.9993189
  17.9843276  17.9993189   7.4110784   7.4110784   7.4110780   7.4110780
   7.4219054   7.4219054   7.4219054   7.4219054   7.4219057   7.4110789
   7.4219059   7.4110789   7.4219057   7.4110789   7.4219059   7.4110789
   0.1659063   0.1659063   0.1659063   0.1659063   0.1659063   0.1659063
   0.1659063   0.1659063
 SUMMED SPIN DENSITY           4.00000000
 TOTAL ATOMIC SPINS  :
   0.6517904  -0.5586554   0.6517903  -0.5586554   0.7143117   0.6517903
   0.7143117   0.6517903   0.0092730   0.0092730   0.0092729   0.0092729
   0.1271279   0.1271279   0.1271279   0.1271279   0.1271279   0.0092730
   0.1271280   0.0092730   0.1271279   0.0092730   0.1271280   0.0092730
  -0.0012102  -0.0012102  -0.0012102  -0.0012102  -0.0012102  -0.0012102
  -0.0012102  -0.0012102
 TTTTTTTTTTTTTTTTTTTTTTTTTTTTTT MOQGAD      TELAPSE     5054.17 TCPU     5003.99
 TTTTTTTTTTTTTTTTTTTTTTTTTTTTTT SHELLXN     TELAPSE     5271.41 TCPU     5218.61
 TTTTTTTTTTTTTTTTTTTTTTTTTTTTTT MONMO3      TELAPSE     5277.98 TCPU     5224.67
 NUMERICALLY INTEGRATED DENSITY    134.0000719263    130.0000624678
 TTTTTTTTTTTTTTTTTTTTTTTTTTTTTT NUMDFT      TELAPSE     5281.84 TCPU     5228.51
 CYC  21 ETOT(AU) -1.842452730682E+03 DETOT -7.41E-11 tst  3.68E-13 PX  1.09E-06
 CYCLE 21 WAVE FUNCTION SAVED IN FORTRAN UNIT 79
 TTTTTTTTTTTTTTTTTTTTTTTTTTTTTT DIIS        TELAPSE     5284.29 TCPU     5230.94
 DIIS TEST: 0.19970E-10 AT SCF   CYCLE  21 - DIIS ACTIVE - HISTORY:    21 CYCLES
 TTTTTTTTTTTTTTTTTTTTTTTTTTTTTT FDIK        TELAPSE     5288.80 TCPU     5235.40
 SPIN LOCKING: NO ENERGY GAP COMPUTED
 TTTTTTTTTTTTTTTTTTTTTTTTTTTTTT PDIG        TELAPSE     5290.33 TCPU     5236.92
 CHARGE NORMALIZATION FACTOR   1.00000000
 TOTAL ATOMIC CHARGES:
  17.9993190  18.0214717  17.9993212  18.0214717  17.9843276  17.9993189
  17.9843276  17.9993189   7.4110784   7.4110784   7.4110781   7.4110781
   7.4219054   7.4219054   7.4219054   7.4219054   7.4219057   7.4110789
   7.4219059   7.4110789   7.4219057   7.4110789   7.4219059   7.4110789
   0.1659063   0.1659063   0.1659063   0.1659063   0.1659063   0.1659063
   0.1659063   0.1659063
 SUMMED SPIN DENSITY           4.00000000
 TOTAL ATOMIC SPINS  :
   0.6517904  -0.5586555   0.6517903  -0.5586555   0.7143116   0.6517903
   0.7143116   0.6517903   0.0092730   0.0092730   0.0092729   0.0092729
   0.1271280   0.1271280   0.1271280   0.1271280   0.1271279   0.0092730
   0.1271281   0.0092730   0.1271279   0.0092730   0.1271281   0.0092730
  -0.0012102  -0.0012102  -0.0012102  -0.0012102  -0.0012102  -0.0012102
  -0.0012102  -0.0012102
 TTTTTTTTTTTTTTTTTTTTTTTTTTTTTT MOQGAD      TELAPSE     5290.38 TCPU     5236.97
 TTTTTTTTTTTTTTTTTTTTTTTTTTTTTT SHELLXN     TELAPSE     5505.94 TCPU     5451.47
 +++ ENERGIES IN A.U. +++
 ::: EXT EL-POLE                                  -9.3507635629660E+03
 ::: EXT EL-SPHEROPOLE                             4.5362693823615E+01
 ::: BIELET ZONE E-E                               1.0186445961442E+04
 ::: TOTAL E-E                                     8.8104509229976E+02
 ::: TOTAL E-N + N-E                              -2.9270809225066E+03
 ::: TOTAL N-N                                    -8.2862678999312E+02
 ::: KINETIC ENERGY                                1.1952628886383E+03
 ::: PSEUDO TOTAL   ENERGY                        -1.6793997315617E+03
 ::: VIRIAL COEFFICIENT                            8.3158481293721E-01
 TTTTTTTTTTTTTTTTTTTTTTTTTTTTTT MONMO3      TELAPSE     5514.55 TCPU     5460.08
 NUMERICALLY INTEGRATED DENSITY    134.0000719263    130.0000624678
 TTTTTTTTTTTTTTTTTTTTTTTTTTTTTT NUMDFT      TELAPSE     5518.82 TCPU     5463.86
 CYC  22 ETOT(AU) -1.842452730682E+03 DETOT  6.23E-11 tst  3.03E-14 PX  1.09E-06

 == SCF ENDED - CONVERGENCE ON ENERGY      E(AU) -1.8424527306817E+03 CYCLES  22


 ENERGY EXPRESSION=HARTREE+FOCK EXCH*0.25000+(PBE        EXCH)*0.75000+PBE        CORR

 FINITE TEMPERATURE DFT CALCULATION 
 TEMPERATURE      (T)    1.000000000000E-13 HARTREE 
 ENERGY           (E)   -1.842452730682E+03
 FREE ENERGY      (F)   -1.842452730682E+03
 ELECTRON ENTROPY (S)    0.000000000000E+00
 (E(T)+F(T))/2    (E0)  -1.842452730682E+03


 TOTAL ENERGY(DFT)(AU)( 22) -1.8424527306817E+03 DE 6.2E-11 tester 3.0E-14
 TTTTTTTTTTTTTTTTTTTTTTTTTTTTTT EDFT        TELAPSE     5518.83 TCPU     5463.87
 EIGENVECTORS IN FORTRAN UNIT  8
 TTTTTTTTTTTTTTTTTTTTTTTTTTTTTT END         TELAPSE     5520.76 TCPU     5465.80
 EEEEEEEEEE TERMINATION  DATE 24 03 2018 TIME 22:17:11.2
NODE    0 CPU TIME =      5465.799
NODE    1 CPU TIME =      5463.435
NODE    2 CPU TIME =      5465.522
NODE    3 CPU TIME =      5460.746
NODE    4 CPU TIME =      5469.870
NODE    5 CPU TIME =      5465.941
NODE    6 CPU TIME =      5461.100
NODE    7 CPU TIME =      5471.868
NODE    8 CPU TIME =      5456.961
NODE    9 CPU TIME =      5476.922
NODE   10 CPU TIME =      5462.051
NODE   11 CPU TIME =      5458.873
NODE   12 CPU TIME =      5456.202
NODE   13 CPU TIME =      5455.507
NODE   14 CPU TIME =      5465.713
NODE   15 CPU TIME =      5455.717
    TOTAL CPU TIME =     87412.227
