--------------------------------------------------------------------------
[[7683,1],7]: A high-performance Open MPI point-to-point messaging module
was unable to find any relevant network interfaces:

Module: OpenFabrics (openib)
  Host: golub049

Another transport will be used instead, although this may result in
lower performance.

NOTE: You can disable this warning by setting the MCA parameter
btl_base_warn_component_unused to 0.
--------------------------------------------------------------------------
 PROCESS            2  OF           16  WORKING
 PROCESS           14  OF           16  WORKING
 PROCESS            1  OF           16  WORKING
 PROCESS            7  OF           16  WORKING
 PROCESS            8  OF           16  WORKING
 PROCESS            9  OF           16  WORKING
 PROCESS           11  OF           16  WORKING
 PROCESS            6  OF           16  WORKING
 PROCESS           13  OF           16  WORKING
 PROCESS            5  OF           16  WORKING
 PROCESS           10  OF           16  WORKING
 PROCESS            0  OF           16  WORKING
 PROCESS           12  OF           16  WORKING
 PROCESS            3  OF           16  WORKING

         
 *******************************************************************************
 *                                                                             *
 *                               CRYSTAL17                                     *
 *                      public : 1.0.2 - March 1st, 2018                       *
 *                       HTTP://WWW.CRYSTAL.UNITO.IT                           *
 *                                                                             *
 *                              MAIN AUTHORS                                   *
 *                                                                             *
 *  R. DOVESI(1,11), V.R. SAUNDERS(2), C. ROETTI(1,11), R. ORLANDO(1,11),      *
 *  C.M. ZICOVICH-WILSON(1,3), F. PASCALE(4), B. CIVALLERI(1,11),              *
 *  K. DOLL(5), N.M. HARRISON(2,6), I.J. BUSH(7), Ph. D'ARCO(8),               *
 *  M. LLUNELL(9), M. CAUSA'(10), Y. NOEL(8), L. MASCHIO(1,11), A. ERBA(1,11)  *
 *  M. RE'RAT(14), S. CASASSA(1,11)                                            *
 *                                                                             *
 *        CONTRIBUTIONS TO THE CODE HAVE ALSO BEEN GIVEN BY                    *
 *                                                                             *
 *  M. FERRABONE(1,11), M. DE LA PIERRE(1,11), M. FERRERO(1,11),               *
 *  J. BAIMA(1,11), E. ALBANESE(1,11), M.F. PEINTINGER(12), R. BAST(13),       *
 *  B. KIRTMAN(15), V. LACIVITA(1,11), R. DEMICHELIS(1,16)                     *
 *  G. BRANDEBURG(17), S. SALUSTRO(1,11), G. SANSONE(1,11)                     *
 *  M.T. RUGGIERO(18)                                                          *
 *                                                                             *
 * (1) THEORETICAL CHEMISTRY GROUP - UNIVERSITA' DI TORINO - TORINO (ITALY)    *
 * (2) COMPUTATIONAL SCIENCE & ENGINEERING DEPARTMENT - STFC DARESBURY (UK)    *
 * (3) UNIVERSIDAD AUTONOMA DEL ESTADO DE MORELOS - CUERNAVACA (MEXICO)        *
 * (4) UNIVERSITE' DE LORRAINE - NANCY (FRANCE)                                *
 * (5) UNIVERSITAET STUTTGART- STUTTGART (GERMANY)                             *
 * (6) IMPERIAL COLLEGE - LONDON (UK)                                          *
 * (7) OXFORD E-RESEARCH CENTRE - OXFORD (UK)                                  *
 * (8) UPMC - SORBONNE UNIVERSITES - PARIS (FRANCE)                            *
 * (9) UNIVERSIDAD DE BARCELONA - BARCELONA (SPAIN)                            *
 *(10) UNIVERSITA' DI NAPOLI "FEDERICO II" - NAPOLI (ITALY)                    *
 *(11) NIS - NANOSTRUCTURED INTERFACES AND SURFACES - TORINO (ITALY)           *
 *(12) MPI FUER CHEMISCHE ENERGIEKONVERSION - MUELHEIM AN DER RUHR (GERMANY)   *
 *(13) UNIVERSITY OF TROMSO - TROMSO (NORWAY)                                  *
 *(14) UNIVERSITE' DE PAU ET DES PAYS DE L'ADOUR - PAU (FRANCE)                *
 *(15) UNIVERSITY OF CALIFORNIA SANTA BARBARA - SANTA BARBARA (USA)            *
 *(16) CURTIN UNIVERSITY - PERTH (AUSTRALIA)                                   *
 *(17) UNIVERSITY COLLEGE LONDON - LONDON (UK)                                 *
 *(18) CAMBRIDGE UNIVERSITY - CAMBRIDGE (UK)                                   *
 *                                                                             *
 *******************************************************************************
 EEEEEEEEEE STARTING  DATE 02 12 2018 TIME 22:13:41.3
 Generated by CrystalWriter                                                      

 CRYSTAL CALCULATION
 (INPUT ACCORDING TO THE INTERNATIONAL TABLES FOR X-RAY CRYSTALLOGRAPHY)
 PROCESS            4  OF           16  WORKING
 CRYSTAL FAMILY                       :  TETRAGONAL  
 CRYSTAL CLASS  (GROTH - 1921)        :  DITETRAGONAL DIPYRAMIDAL             

 SPACE GROUP (CENTROSYMMETRIC)        :  P 4/M M M       

 LATTICE PARAMETERS  (ANGSTROMS AND DEGREES) - CONVENTIONAL CELL
        A           B           C        ALPHA        BETA       GAMMA
     3.92785     3.92785     3.43380    90.00000    90.00000    90.00000


 NUMBER OF IRREDUCIBLE ATOMS IN THE CONVENTIONAL CELL:    4

 INPUT COORDINATES

 ATOM AT. N.              COORDINATES
   1 238     0.000000000000E+00  0.000000000000E+00  5.000000000000E-01
   2 229     5.000000000000E-01  5.000000000000E-01  0.000000000000E+00
   3 208     0.000000000000E+00  5.000000000000E-01  0.000000000000E+00
   4 208     5.000000000000E-01  0.000000000000E+00  0.000000000000E+00

 *******************************************************************************

 << INFORMATION >>: FROM NOW ON, ALL COORDINATES REFER TO THE PRIMITIVE CELL

 *******************************************************************************
 PROCESS           15  OF           16  WORKING

 LATTICE PARAMETERS  (ANGSTROMS AND DEGREES) - PRIMITIVE CELL
       A          B          C        ALPHA      BETA     GAMMA        VOLUME
    3.92785    3.92785    3.43380    90.00000  90.00000  90.00000     52.976686

 INPUT LIST - ATOM N.   4 NOT IRREDUCIBLE

 COORDINATES OF THE EQUIVALENT ATOMS (FRACTIONAL UNITS)

 N. ATOM EQUIV AT. N.          X                  Y                  Z

   1   1   1  238 SR    0.00000000000E+00  0.00000000000E+00 -5.00000000000E-01

   2   2   1  229 CU   -5.00000000000E-01 -5.00000000000E-01  0.00000000000E+00

   3   3   1  208 O     0.00000000000E+00 -5.00000000000E-01  0.00000000000E+00
   4   3   2  208 O     5.00000000000E-01  0.00000000000E+00  0.00000000000E+00

 NUMBER OF SYMMETRY OPERATORS         :   16
 *******************************************************************************
 * GEOMETRY EDITING - INPUT COORDINATES ARE GIVEN IN ANGSTROM         
 *******************************************************************************

 GEOMETRY NOW FULLY CONSISTENT WITH THE GROUP

 NO SYMMOPS WITH FINITE TRANSLATIONAL COMPONENT

 *******************************************************************************
 * SUPERCELL OPTION
 *******************************************************************************


        EXPANSION MATRIX OF PRIMITIVE CELL
 E1     2.000     0.000     0.000
 E2     0.000     2.000     0.000
 E3     0.000     0.000     1.000

 NUMBER OF ATOMS PER SUPERCELL    16

        DIRECT LATTICE VECTORS COMPONENTS (ANGSTROM)
 B1     7.856     0.000     0.000
 B2     0.000     7.856     0.000
 B3     0.000     0.000     3.434

 LATTICE PARAMETERS  (ANGSTROM AND DEGREES)
       A          B          C         ALPHA     BETA     GAMMA        VOLUME
    7.85570    7.85570    3.43380    90.00000  90.00000  90.00000    211.906743


 **** ATOMS BELONGING TO THE SUPERCELL
 LABEL AT.NO.      COORDINATES (ANGSTROM AND FRACTIONAL)
     1   238     0.0000     0.0000     1.7169     0.0000     0.0000     0.5000
     2   238     0.0000     3.9278     1.7169     0.0000     0.5000     0.5000
     3   238    -3.9278     0.0000     1.7169    -0.5000     0.0000     0.5000
     4   238    -3.9278     3.9278     1.7169    -0.5000     0.5000     0.5000
     5   229    -1.9639    -1.9639     0.0000    -0.2500    -0.2500     0.0000
     6   229    -1.9639     1.9639     0.0000    -0.2500     0.2500     0.0000
     7   229     1.9639    -1.9639     0.0000     0.2500    -0.2500     0.0000
     8   229     1.9639     1.9639     0.0000     0.2500     0.2500     0.0000
     9   208     0.0000    -1.9639     0.0000     0.0000    -0.2500     0.0000
    10   208     0.0000     1.9639     0.0000     0.0000     0.2500     0.0000
    11   208    -3.9278    -1.9639     0.0000    -0.5000    -0.2500     0.0000
    12   208    -3.9278     1.9639     0.0000    -0.5000     0.2500     0.0000
    13   208    -1.9639     0.0000     0.0000    -0.2500     0.0000     0.0000
    14   208    -1.9639     3.9278     0.0000    -0.2500     0.5000     0.0000
    15   208     1.9639     0.0000     0.0000     0.2500     0.0000     0.0000
    16   208     1.9639     3.9278     0.0000     0.2500     0.5000     0.0000

 **************************** SUPERCELL GENERATED ****************************
 *********************************************************************
                        ATOMIC SITE SYMMETRIES
 *********************************************************************


 ATOM   1 ATOMIC NUMBER 238 - NUMBER OF SYMMOPS WHICH DO NOT MOVE THE ATOM  16
 SEQUENCE NUMBERS OF THE SYMMOPS
    1    2    3    4    5    6    7    8    9   10   11   12   13   14   15
   16
 NO EQUIVALENT ATOMS


 ATOM   2 ATOMIC NUMBER 238 - NUMBER OF SYMMOPS WHICH DO NOT MOVE THE ATOM   8
 SEQUENCE NUMBERS OF THE SYMMOPS
    1    2    3    4    9   10   11   12
 NUMBER OF ATOMS EQUIVALENT BY SYMMETRY    1
 SEQUENCE NUMBERS OF THESE ATOMS
    3
 SEQUENCE NUMBERS OF THE CORRESPONDING SYMMOPS
    5


 ATOM   3 ATOMIC NUMBER 238 - NUMBER OF SYMMOPS WHICH DO NOT MOVE THE ATOM   8
 SEQUENCE NUMBERS OF THE SYMMOPS
    1    2    3    4    9   10   11   12
 NUMBER OF ATOMS EQUIVALENT BY SYMMETRY    1
 SEQUENCE NUMBERS OF THESE ATOMS
    2
 SEQUENCE NUMBERS OF THE CORRESPONDING SYMMOPS
    5


 ATOM   4 ATOMIC NUMBER 238 - NUMBER OF SYMMOPS WHICH DO NOT MOVE THE ATOM  16
 SEQUENCE NUMBERS OF THE SYMMOPS
    1    2    3    4    5    6    7    8    9   10   11   12   13   14   15
   16
 NO EQUIVALENT ATOMS


 ATOM   5 ATOMIC NUMBER 229 - NUMBER OF SYMMOPS WHICH DO NOT MOVE THE ATOM   4
 SEQUENCE NUMBERS OF THE SYMMOPS
    1    6   10   13
 NUMBER OF ATOMS EQUIVALENT BY SYMMETRY    3
 SEQUENCE NUMBERS OF THESE ATOMS
    8    6    7
 SEQUENCE NUMBERS OF THE CORRESPONDING SYMMOPS
    2    3    4


 ATOM   6 ATOMIC NUMBER 229 - NUMBER OF SYMMOPS WHICH DO NOT MOVE THE ATOM   4
 SEQUENCE NUMBERS OF THE SYMMOPS
    1    5   10   14
 NUMBER OF ATOMS EQUIVALENT BY SYMMETRY    3
 SEQUENCE NUMBERS OF THESE ATOMS
    7    5    8
 SEQUENCE NUMBERS OF THE CORRESPONDING SYMMOPS
    2    3    4


 ATOM   7 ATOMIC NUMBER 229 - NUMBER OF SYMMOPS WHICH DO NOT MOVE THE ATOM   4
 SEQUENCE NUMBERS OF THE SYMMOPS
    1    5   10   14
 NUMBER OF ATOMS EQUIVALENT BY SYMMETRY    3
 SEQUENCE NUMBERS OF THESE ATOMS
    6    8    5
 SEQUENCE NUMBERS OF THE CORRESPONDING SYMMOPS
    2    3    4


 ATOM   8 ATOMIC NUMBER 229 - NUMBER OF SYMMOPS WHICH DO NOT MOVE THE ATOM   4
 SEQUENCE NUMBERS OF THE SYMMOPS
    1    6   10   13
 NUMBER OF ATOMS EQUIVALENT BY SYMMETRY    3
 SEQUENCE NUMBERS OF THESE ATOMS
    5    7    6
 SEQUENCE NUMBERS OF THE CORRESPONDING SYMMOPS
    2    3    4


 ATOM   9 ATOMIC NUMBER 208 - NUMBER OF SYMMOPS WHICH DO NOT MOVE THE ATOM   4
 SEQUENCE NUMBERS OF THE SYMMOPS
    1    4   10   11
 NUMBER OF ATOMS EQUIVALENT BY SYMMETRY    3
 SEQUENCE NUMBERS OF THESE ATOMS
   10   15   13
 SEQUENCE NUMBERS OF THE CORRESPONDING SYMMOPS
    2    5    6


 ATOM  10 ATOMIC NUMBER 208 - NUMBER OF SYMMOPS WHICH DO NOT MOVE THE ATOM   4
 SEQUENCE NUMBERS OF THE SYMMOPS
    1    4   10   11
 NUMBER OF ATOMS EQUIVALENT BY SYMMETRY    3
 SEQUENCE NUMBERS OF THESE ATOMS
    9   13   15
 SEQUENCE NUMBERS OF THE CORRESPONDING SYMMOPS
    2    5    6


 ATOM  11 ATOMIC NUMBER 208 - NUMBER OF SYMMOPS WHICH DO NOT MOVE THE ATOM   4
 SEQUENCE NUMBERS OF THE SYMMOPS
    1    4   10   11
 NUMBER OF ATOMS EQUIVALENT BY SYMMETRY    3
 SEQUENCE NUMBERS OF THESE ATOMS
   12   16   14
 SEQUENCE NUMBERS OF THE CORRESPONDING SYMMOPS
    2    5    6


 ATOM  12 ATOMIC NUMBER 208 - NUMBER OF SYMMOPS WHICH DO NOT MOVE THE ATOM   4
 SEQUENCE NUMBERS OF THE SYMMOPS
    1    4   10   11
 NUMBER OF ATOMS EQUIVALENT BY SYMMETRY    3
 SEQUENCE NUMBERS OF THESE ATOMS
   11   14   16
 SEQUENCE NUMBERS OF THE CORRESPONDING SYMMOPS
    2    5    6


 ATOM  13 ATOMIC NUMBER 208 - NUMBER OF SYMMOPS WHICH DO NOT MOVE THE ATOM   4
 SEQUENCE NUMBERS OF THE SYMMOPS
    1    3   10   12
 NUMBER OF ATOMS EQUIVALENT BY SYMMETRY    3
 SEQUENCE NUMBERS OF THESE ATOMS
   15   10    9
 SEQUENCE NUMBERS OF THE CORRESPONDING SYMMOPS
    2    5    6


 ATOM  14 ATOMIC NUMBER 208 - NUMBER OF SYMMOPS WHICH DO NOT MOVE THE ATOM   4
 SEQUENCE NUMBERS OF THE SYMMOPS
    1    3   10   12
 NUMBER OF ATOMS EQUIVALENT BY SYMMETRY    3
 SEQUENCE NUMBERS OF THESE ATOMS
   16   12   11
 SEQUENCE NUMBERS OF THE CORRESPONDING SYMMOPS
    2    5    6


 ATOM  15 ATOMIC NUMBER 208 - NUMBER OF SYMMOPS WHICH DO NOT MOVE THE ATOM   4
 SEQUENCE NUMBERS OF THE SYMMOPS
    1    3   10   12
 NUMBER OF ATOMS EQUIVALENT BY SYMMETRY    3
 SEQUENCE NUMBERS OF THESE ATOMS
   13    9   10
 SEQUENCE NUMBERS OF THE CORRESPONDING SYMMOPS
    2    5    6


 ATOM  16 ATOMIC NUMBER 208 - NUMBER OF SYMMOPS WHICH DO NOT MOVE THE ATOM   4
 SEQUENCE NUMBERS OF THE SYMMOPS
    1    3   10   12
 NUMBER OF ATOMS EQUIVALENT BY SYMMETRY    3
 SEQUENCE NUMBERS OF THESE ATOMS
   14   11   12
 SEQUENCE NUMBERS OF THE CORRESPONDING SYMMOPS
    2    5    6

 *****   16 SYMMOPS - TRANSLATORS IN ANGSTROM
 ***** MATRICES AND TRANSLATORS IN THE CARTESIAN REFERENCE FRAME

 ORDER   : ORDER OF THE OPERATOR

 TRANSLA : REAL TRANSLATION (WITHOUT ORIGIN SHIFT) IN CARTESIAN COORDINATES

 uvw/hkl : ORIENTATION OF THE OPERATOR IN CARTESIAN COORDINATES

 LOCATED : ORIGIN OF THE OPERATOR IN CARTESIAN COORDINATES

   NO.   1 INVERSE   1    ORDER   1        NO.   2 INVERSE   2    ORDER   2
    1.000   0.000   0.000     0.000        -1.000   0.000   0.000     0.000
    0.000   1.000   0.000     0.000         0.000  -1.000   0.000     0.000
    0.000   0.000   1.000     0.000         0.000   0.000   1.000     0.000
             OPERATION E(   1)                       OPERATION C(   2)
 DETERMINANT 1.; ROTATION(DEG)   0.      DETERMINANT 1.; ROTATION(DEG) 180.
 TRANSLA (  0.000    0.000    0.000)     TRANSLA (  0.000    0.000    0.000)
 uvw/hkl (  0.000    0.000    0.000)     uvw/hkl (  0.000    0.000    4.000)
 LOCATED (  0.000    0.000    0.000)     LOCATED (  0.000    0.000    0.000)

   NO.   3 INVERSE   3    ORDER   2        NO.   4 INVERSE   4    ORDER   2
    1.000   0.000   0.000     0.000        -1.000   0.000   0.000     0.000
    0.000  -1.000   0.000     0.000         0.000   1.000   0.000     0.000
    0.000   0.000  -1.000     0.000         0.000   0.000  -1.000     0.000
             OPERATION C(   2)                       OPERATION C(   2)
 DETERMINANT 1.; ROTATION(DEG) 180.      DETERMINANT 1.; ROTATION(DEG) 180.
 TRANSLA (  0.000    0.000    0.000)     TRANSLA (  0.000    0.000    0.000)
 uvw/hkl (  4.000    0.000    0.000)     uvw/hkl (  0.000   -4.000    0.000)
 LOCATED (  0.000    0.000    0.000)     LOCATED (  0.000    0.000    0.000)

   NO.   5 INVERSE   5    ORDER   2        NO.   6 INVERSE   6    ORDER   2
    0.000  -1.000   0.000     0.000         0.000   1.000   0.000     0.000
   -1.000   0.000   0.000     0.000         1.000   0.000   0.000     0.000
    0.000   0.000  -1.000     0.000         0.000   0.000  -1.000     0.000
             OPERATION C(   2)                       OPERATION C(   2)
 DETERMINANT 1.; ROTATION(DEG) 180.      DETERMINANT 1.; ROTATION(DEG) 180.
 TRANSLA (  0.000    0.000    0.000)     TRANSLA (  0.000    0.000    0.000)
 uvw/hkl (  2.000   -2.000    0.000)     uvw/hkl ( -2.000   -2.000    0.000)
 LOCATED (  0.000    0.000    0.000)     LOCATED (  0.000    0.000    0.000)

   NO.   7 INVERSE   8    ORDER   4        NO.   8 INVERSE   7    ORDER   4
    0.000   1.000   0.000     0.000         0.000  -1.000   0.000     0.000
   -1.000   0.000   0.000     0.000         1.000   0.000   0.000     0.000
    0.000   0.000   1.000     0.000         0.000   0.000   1.000     0.000
             OPERATION C(   4)                       OPERATION C(   4)
 DETERMINANT 1.; ROTATION(DEG)  90.      DETERMINANT 1.; ROTATION(DEG)  90.
 TRANSLA (  0.000    0.000    0.000)     TRANSLA (  0.000    0.000    0.000)
 uvw/hkl (  0.000    0.000    2.000)     uvw/hkl (  0.000    0.000    2.000)
 LOCATED (  0.000    0.000    0.000)     LOCATED (  0.000    0.000    0.000)

   NO.   9 INVERSE   9    ORDER   2        NO.  10 INVERSE  10    ORDER   2
   -1.000   0.000   0.000     0.000         1.000   0.000   0.000     0.000
    0.000  -1.000   0.000     0.000         0.000   1.000   0.000     0.000
    0.000   0.000  -1.000     0.000         0.000   0.000  -1.000     0.000
             OPERATION I(   2)                       OPERATION M(   2)
 DETERMINANT-1.; ROTATION(DEG) 180.      DETERMINANT-1.; ROTATION(DEG)   0.
 TRANSLA (  0.000    0.000    0.000)     TRANSLA (  0.000    0.000    0.000)
 uvw/hkl (  0.000    0.000    0.000)     uvw/hkl (  0.000    0.000   -2.000)
 LOCATED (  0.000    0.000    0.000)     LOCATED (  0.000    0.000    0.000)

   NO.  11 INVERSE  11    ORDER   2        NO.  12 INVERSE  12    ORDER   2
   -1.000   0.000   0.000     0.000         1.000   0.000   0.000     0.000
    0.000   1.000   0.000     0.000         0.000  -1.000   0.000     0.000
    0.000   0.000   1.000     0.000         0.000   0.000   1.000     0.000
             OPERATION M(   2)                       OPERATION M(   2)
 DETERMINANT-1.; ROTATION(DEG)   0.      DETERMINANT-1.; ROTATION(DEG)   0.
 TRANSLA (  0.000    0.000    0.000)     TRANSLA (  0.000    0.000    0.000)
 uvw/hkl (  2.000    0.000    0.000)     uvw/hkl (  0.000   -2.000    0.000)
 LOCATED (  0.000    0.000    0.000)     LOCATED (  0.000    0.000    0.000)

   NO.  13 INVERSE  13    ORDER   2        NO.  14 INVERSE  14    ORDER   2
    0.000   1.000   0.000     0.000         0.000  -1.000   0.000     0.000
    1.000   0.000   0.000     0.000        -1.000   0.000   0.000     0.000
    0.000   0.000   1.000     0.000         0.000   0.000   1.000     0.000
             OPERATION M(   2)                       OPERATION M(   2)
 DETERMINANT-1.; ROTATION(DEG)   0.      DETERMINANT-1.; ROTATION(DEG)   0.
 TRANSLA (  0.000    0.000    0.000)     TRANSLA (  0.000    0.000    0.000)
 uvw/hkl (  1.000   -1.000    0.000)     uvw/hkl (  1.000    1.000    0.000)
 LOCATED (  0.000    0.000    0.000)     LOCATED (  0.000    0.000    0.000)

   NO.  15 INVERSE  16    ORDER   4        NO.  16 INVERSE  15    ORDER   4
    0.000  -1.000   0.000     0.000         0.000   1.000   0.000     0.000
    1.000   0.000   0.000     0.000        -1.000   0.000   0.000     0.000
    0.000   0.000  -1.000     0.000         0.000   0.000  -1.000     0.000
             OPERATION S(   4)                       OPERATION S(   4)
 DETERMINANT-1.; ROTATION(DEG)  90.      DETERMINANT-1.; ROTATION(DEG)  90.
 TRANSLA (  0.000    0.000    0.000)     TRANSLA (  0.000    0.000    0.000)
 uvw/hkl (  0.000    0.000    2.000)     uvw/hkl (  0.000    0.000    2.000)
 LOCATED (  0.000    0.000    0.000)     LOCATED (  0.000    0.000    0.000)
 SSSSSSSSSSSSSSSSSSSSSSSSSSSSSSSSSSSSSSSSSSSSSSSSSSSSSSSSSSSSSSSSSSSSSSSSSSSSSS
 REDUCTION OF SYMMETRY - ATOMIC LABELS SET TO (ATOM, AT. N., LABEL)
   1(238) 1;   2(238) 1;   3(238) 1;   4(238) 1;   5(229) 2;   6(229) 3;
   7(229) 3;   8(229) 2;   9(208) 4;  10(208) 4;  11(208) 4;  12(208) 4;
  13(208) 4;  14(208) 4;  15(208) 4;  16(208) 4;
 THE NUMBER OF SYMMETRY OPERATORS HAS BEEN REDUCED FROM 16 TO  8
 *******************************************************************************

 GCALCO - MAX INDICES DIRECT LATTICE VECTOR    11    11    25
 NO.OF VECTORS CREATED 6999 STARS  550 RMAX   133.78549 BOHR

 GEOMETRY FOR WAVE FUNCTION - DIMENSIONALITY OF THE SYSTEM    3
 (NON PERIODIC DIRECTION: LATTICE PARAMETER FORMALLY SET TO 500)
 *******************************************************************************
 LATTICE PARAMETERS (ANGSTROMS AND DEGREES) - BOHR = 0.5291772083 ANGSTROM
 PRIMITIVE CELL - CENTRING CODE 1/1 VOLUME=   211.906743 - DENSITY  5.731 g/cm^3
         A              B              C           ALPHA      BETA       GAMMA 
     7.85570000     7.85570000     3.43380000    90.000000  90.000000  90.000000
 *******************************************************************************
 ATOMS IN THE ASYMMETRIC UNIT    7 - ATOMS IN THE UNIT CELL:   16
     ATOM                 X/A                 Y/B                 Z/C    
 *******************************************************************************
      1 T 238 SR    0.000000000000E+00  0.000000000000E+00  5.000000000000E-01
      2 T 238 SR    0.000000000000E+00 -5.000000000000E-01  5.000000000000E-01
      3 F 238 SR   -5.000000000000E-01  0.000000000000E+00  5.000000000000E-01
      4 T 238 SR   -5.000000000000E-01 -5.000000000000E-01  5.000000000000E-01
      5 T 229 CU   -2.500000000000E-01 -2.500000000000E-01  0.000000000000E+00
      6 T 229 CU   -2.500000000000E-01  2.500000000000E-01  0.000000000000E+00
      7 F 229 CU    2.500000000000E-01 -2.500000000000E-01  0.000000000000E+00
      8 F 229 CU    2.500000000000E-01  2.500000000000E-01  0.000000000000E+00
      9 T 208 O     0.000000000000E+00 -2.500000000000E-01  0.000000000000E+00
     10 F 208 O     0.000000000000E+00  2.500000000000E-01  0.000000000000E+00
     11 T 208 O    -5.000000000000E-01 -2.500000000000E-01  0.000000000000E+00
     12 F 208 O    -5.000000000000E-01  2.500000000000E-01  0.000000000000E+00
     13 F 208 O    -2.500000000000E-01  0.000000000000E+00  0.000000000000E+00
     14 F 208 O    -2.500000000000E-01 -5.000000000000E-01  0.000000000000E+00
     15 F 208 O     2.500000000000E-01  0.000000000000E+00  0.000000000000E+00
     16 F 208 O     2.500000000000E-01 -5.000000000000E-01  0.000000000000E+00

 T = ATOM BELONGING TO THE ASYMMETRIC UNIT

 ****    8 SYMMOPS - TRANSLATORS IN FRACTIONAL UNITS
 **** MATRICES AND TRANSLATORS IN THE CRYSTALLOGRAPHIC REFERENCE FRAME
   V INV                    ROTATION MATRICES                   TRANSLATORS
   1   1  1.00  0.00  0.00  0.00  1.00  0.00  0.00  0.00  1.00  0.00  0.00  0.00
   2   2 -1.00  0.00  0.00  0.00 -1.00  0.00  0.00  0.00  1.00  0.00  0.00  0.00
   3   3  0.00 -1.00  0.00 -1.00  0.00  0.00  0.00  0.00 -1.00  0.00  0.00  0.00
   4   4  0.00  1.00  0.00  1.00  0.00  0.00  0.00  0.00 -1.00  0.00  0.00  0.00
   5   5 -1.00  0.00  0.00  0.00 -1.00  0.00  0.00  0.00 -1.00  0.00  0.00  0.00
   6   6  1.00  0.00  0.00  0.00  1.00  0.00  0.00  0.00 -1.00  0.00  0.00  0.00
   7   7  0.00  1.00  0.00  1.00  0.00  0.00  0.00  0.00  1.00  0.00  0.00  0.00
   8   8  0.00 -1.00  0.00 -1.00  0.00  0.00  0.00  0.00  1.00  0.00  0.00  0.00

 DIRECT LATTICE VECTORS CARTESIAN COMPONENTS (ANGSTROM)
          X                    Y                    Z
   0.785570000000E+01   0.000000000000E+00   0.000000000000E+00
   0.000000000000E+00   0.785570000000E+01   0.000000000000E+00
   0.000000000000E+00   0.000000000000E+00   0.343380000000E+01


 CARTESIAN COORDINATES - PRIMITIVE CELL
 *******************************************************************************
 *      ATOM          X(ANGSTROM)         Y(ANGSTROM)         Z(ANGSTROM)
 *******************************************************************************
    1   238 SR    0.000000000000E+00  0.000000000000E+00  1.716900000000E+00
    2   238 SR    0.000000000000E+00  3.927850000000E+00  1.716900000000E+00
    3   238 SR    3.927850000000E+00  0.000000000000E+00  1.716900000000E+00
    4   238 SR    3.927850000000E+00  3.927850000000E+00  1.716900000000E+00
    5   229 CU   -1.963925000000E+00 -1.963925000000E+00  0.000000000000E+00
    6   229 CU   -1.963925000000E+00  1.963925000000E+00  0.000000000000E+00
    7   229 CU    1.963925000000E+00 -1.963925000000E+00  0.000000000000E+00
    8   229 CU    1.963925000000E+00  1.963925000000E+00  0.000000000000E+00
    9   208 O     0.000000000000E+00 -1.963925000000E+00  0.000000000000E+00
   10   208 O     0.000000000000E+00  1.963925000000E+00  0.000000000000E+00
   11   208 O     3.927850000000E+00 -1.963925000000E+00  0.000000000000E+00
   12   208 O     3.927850000000E+00  1.963925000000E+00  0.000000000000E+00
   13   208 O    -1.963925000000E+00  0.000000000000E+00  0.000000000000E+00
   14   208 O    -1.963925000000E+00  3.927850000000E+00  0.000000000000E+00
   15   208 O     1.963925000000E+00  0.000000000000E+00  0.000000000000E+00
   16   208 O     1.963925000000E+00  3.927850000000E+00  0.000000000000E+00

 *******************************************************************************
 *** PSEUDOPOTENTIAL INFORMATION ***
 *******************************************************************************

 ATOMIC NUMBER  29, NUCLEAR CHARGE 19.000, GIVEN IN INPUT       PSEUDOPOTENTIAL
   TYPE       EXPONENT      COEFF.    N      EXPONENT      COEFF.    N
  W0 TMS     6.2514963   19.0000000  -1     6.7272533  118.7784294   1
             6.6102459 -105.8998240   0
  P0 TMS    12.3656871  127.3506942   0
  P1 TMS    11.1607294   71.2298490   0

 ATOMIC NUMBER   8, NUCLEAR CHARGE  6.000, GIVEN IN INPUT       PSEUDOPOTENTIAL
   TYPE       EXPONENT      COEFF.    N      EXPONENT      COEFF.    N
  W0 TMS     9.2979390    6.0000000  -1     8.8649220   55.7876342   1
             8.6292567  -38.8197850   0
  P0 TMS     8.7192445   38.4191413   0

 ATOMIC NUMBER  38, NUCLEAR CHARGE  2.000, GIVEN IN INPUT       PSEUDOPOTENTIAL
   TYPE       EXPONENT      COEFF.    N      EXPONENT      COEFF.    N
  W0 TMS     4.3839388    2.0000000  -1     3.1964983    8.7678775   1
             0.9899150  -14.2552431   0
  P0 TMS     1.2868349  146.8716052   0
  P1 TMS     0.9567448  140.0262284   0
  P2 TMS     1.9483165   24.4454878   0

 *******************************************************************************
 LOCAL ATOMIC FUNCTIONS BASIS SET
 *******************************************************************************
   ATOM   X(AU)   Y(AU)   Z(AU)  N. TYPE  EXPONENT  S COEF   P COEF   D/F/G COEF
 *******************************************************************************
   1 SR   0.000   0.000   3.244
                                  1 S  
                                         2.177E-01-9.389E-02 0.000E+00 0.000E+00
                                         4.871E-01-2.476E-01 0.000E+00 0.000E+00
                                         1.090E+00 1.601E-01 0.000E+00 0.000E+00
                                         2.439E+00-4.360E-02 0.000E+00 0.000E+00
                                         5.457E+00 8.684E-03 0.000E+00 0.000E+00
                                         1.221E+01-1.296E-03 0.000E+00 0.000E+00
                           2-     4 P  
                                         2.236E-01 0.000E+00-4.747E-02 0.000E+00
                                         4.507E-01 0.000E+00-1.710E-01 0.000E+00
                                         9.086E-01 0.000E+00 1.048E-01 0.000E+00
                                         1.831E+00 0.000E+00-2.952E-02 0.000E+00
                                         3.692E+00 0.000E+00 6.196E-03 0.000E+00
                                         7.442E+00 0.000E+00-9.550E-04 0.000E+00
                           5-     9 D  
                                         5.283E-01 0.000E+00 0.000E+00 1.000E+00
                                 10 S  
                                         2.000E-01 1.000E+00 0.000E+00 0.000E+00
                                 11 S  
                                         6.000E-01 1.000E+00 0.000E+00 0.000E+00
                          12-    14 P  
                                         2.000E-01 0.000E+00 1.000E+00 0.000E+00
                          15-    17 P  
                                         6.000E-01 0.000E+00 1.000E+00 0.000E+00
   2 SR   0.000   7.423   3.244
   3 SR   7.423   0.000   3.244
   4 SR   7.423   7.423   3.244
   5 CU  -3.711  -3.711   0.000
                                 69 S  
                                         2.785E+01-1.934E-02 0.000E+00 0.000E+00
                                         2.142E+01 8.861E-02 0.000E+00 0.000E+00
                                         1.054E+01-3.559E-01 0.000E+00 0.000E+00
                                         2.536E+00 5.381E-01 0.000E+00 0.000E+00
                                         1.250E+00 5.111E-01 0.000E+00 0.000E+00
                                         5.998E-01 1.476E-01 0.000E+00 0.000E+00
                                 70 S  
                                         2.785E+01-2.653E-03 0.000E+00 0.000E+00
                                         2.142E+01-7.542E-03 0.000E+00 0.000E+00
                                         1.054E+01 7.976E-02 0.000E+00 0.000E+00
                                         2.536E+00-1.553E-01 0.000E+00 0.000E+00
                                         1.250E+00-2.531E-01 0.000E+00 0.000E+00
                                         5.998E-01-2.817E-02 0.000E+00 0.000E+00
                          71-    73 P  
                                         1.859E+01 0.000E+00 3.652E-03 0.000E+00
                                         1.430E+01 0.000E+00-3.708E-02 0.000E+00
                                         5.631E+00 0.000E+00 2.171E-01 0.000E+00
                                         2.683E+00 0.000E+00 4.410E-01 0.000E+00
                                         1.259E+00 0.000E+00 3.587E-01 0.000E+00
                                         5.741E-01 0.000E+00 1.148E-01 0.000E+00
                                         2.092E-01 0.000E+00 7.316E-03 0.000E+00
                          74-    78 D  
                                         1.579E+01 0.000E+00 0.000E+00 8.422E-02
                                         7.203E+00 0.000E+00 0.000E+00 2.554E-01
                                         2.974E+00 0.000E+00 0.000E+00 3.500E-01
                                         1.207E+00 0.000E+00 0.000E+00 3.417E-01
                                         4.640E-01 0.000E+00 0.000E+00 2.417E-01
                          79-    85 F  
                                         1.692E+00 0.000E+00 0.000E+00 1.000E+00
                                 86 S  
                                         2.000E-01 1.000E+00 0.000E+00 0.000E+00
                                 87 S  
                                         6.000E-01 1.000E+00 0.000E+00 0.000E+00
                          88-    90 P  
                                         2.000E-01 0.000E+00 1.000E+00 0.000E+00
                          91-    93 P  
                                         6.000E-01 0.000E+00 1.000E+00 0.000E+00
                          94-    98 D  
                                         2.000E-01 0.000E+00 0.000E+00 1.000E+00
                          99-   103 D  
                                         6.000E-01 0.000E+00 0.000E+00 1.000E+00
   6 CU  -3.711   3.711   0.000
   7 CU   3.711  -3.711   0.000
   8 CU   3.711   3.711   0.000
   9 O    0.000  -3.711   0.000
                                209 S  
                                         2.680E-01 3.048E-01 0.000E+00 0.000E+00
                                         5.731E-01 4.538E-01 0.000E+00 0.000E+00
                                         1.225E+00 2.959E-01 0.000E+00 0.000E+00
                                         2.620E+00 1.957E-02 0.000E+00 0.000E+00
                                         5.603E+00-1.286E-01 0.000E+00 0.000E+00
                                         1.198E+01 1.202E-02 0.000E+00 0.000E+00
                                         2.562E+01 4.070E-04 0.000E+00 0.000E+00
                                         5.478E+01-7.600E-05 0.000E+00 0.000E+00
                         210-   212 P  
                                         3.337E-01 0.000E+00 2.560E-01 0.000E+00
                                         6.666E-01 0.000E+00 2.819E-01 0.000E+00
                                         1.332E+00 0.000E+00 2.428E-01 0.000E+00
                                         2.661E+00 0.000E+00 1.611E-01 0.000E+00
                                         5.316E+00 0.000E+00 8.231E-02 0.000E+00
                                         1.062E+01 0.000E+00 3.990E-02 0.000E+00
                                         2.122E+01 0.000E+00 4.679E-03 0.000E+00
                         213-   217 D  
                                         6.693E-01 0.000E+00 0.000E+00 1.000E+00
                         218-   224 F  
                                         1.423E+00 0.000E+00 0.000E+00 1.000E+00
                                225 S  
                                         2.000E-01 1.000E+00 0.000E+00 0.000E+00
                                226 S  
                                         6.000E-01 1.000E+00 0.000E+00 0.000E+00
                         227-   229 P  
                                         2.000E-01 0.000E+00 1.000E+00 0.000E+00
                         230-   232 P  
                                         6.000E-01 0.000E+00 1.000E+00 0.000E+00
  10 O    0.000   3.711   0.000
  11 O    7.423  -3.711   0.000
  12 O    7.423   3.711   0.000
  13 O   -3.711   0.000   0.000
  14 O   -3.711   7.423   0.000
  15 O    3.711   0.000   0.000
  16 O    3.711   7.423   0.000
 INFORMATION **** SET_MPP **** PCRYSTAL CALCULATION
 INFORMATION **** READM2 **** NEW DEFAULT: FOCK/KS MATRIX MIXING SET TO 30 %
 INFORMATION **** READM2 **** NEW DEFAULT: FULL DIRECT SCF MODE
 INFORMATION **** READM2 **** NEW DEFAULT: COULOMB BIPOLAR BUFFER SET TO 32 Mb
 INFORMATION **** READM2 **** NEW DEFAULT: EXCHANGE BIPOLAR BUFFER SET TO 32 Mb

 *******************************************************************************
 NEW DEFAULT: DFT INTEGRATION GRID INCREASED TO XLGRID
 NEW DEFAULT: DIIS ACCELERATOR ACTIVE
 USE KEYWORD NODIIS TO TURN IT OFF
 *******************************************************************************

 INFORMATION **** READM2 **** FULL DIRECT SCF (MONO AND BIEL INT) SELECTED
 INFORMATION **** BIPOSIZE **** COULOMB BIPOLAR BUFFER SET TO   100000000
 INFORMATION **** EXCHSIZE **** EXCHANGE BIPOLAR BUFFER SIZE SET TO    10000000
 INFORMATION **** TOLDEE **** SCF TOL ON TOTAL ENERGY SET TO          10
 INFORMATION **** TOLINTEG **** COULOMB AND EXCHANGE SERIES TOLERANCES MODIFIED
 INFORMATION **** MAXCYCLE **** MAX NUMBER OF SCF CYCLES SET TO         200
 INFORMATION **** SAVEWF **** not fully tested
 INFORMATION **** SPINLOCK **** LOCK IN A GIVEN SPIN STATE
 ALPHA-BETA ELECTRONS LOCKED TO   0 FOR 200 SCF CYCLES
 SSSSSSSSSSSSSSSSSSSSSSSSSSSSSSSSSSSSSSSSSSSSSSSSSSSSSSSSSSSSSSSSSSSSSSSSSSSSSS
 ATOMIC SPINS SET TO (ATOM, AT. N., SPIN)
   1 238 0   2 238 0   3 238 0   4 238 0   5 229 1   6 229-1   7 229-1   8 229 1
   9 208 0  10 208 0  11 208 0  12 208 0  13 208 0  14 208 0  15 208 0  16 208 0
 *******************************************************************************
 N. OF ATOMS PER CELL        16  COULOMB OVERLAP TOL         (T1) 10**   -8
 NUMBER OF SHELLS           136  COULOMB PENETRATION TOL     (T2) 10**   -8
 NUMBER OF AO               400  EXCHANGE OVERLAP TOL        (T3) 10**   -8
 N. OF ELECTRONS PER CELL   132  EXCHANGE PSEUDO OVP (F(G))  (T4) 10**   -8
 CORE ELECTRONS PER CELL      0  EXCHANGE PSEUDO OVP (P(G))  (T5) 10**  -16
 N. OF SYMMETRY OPERATORS     8  POLE ORDER IN MONO ZONE                  4
 *******************************************************************************
 TYPE OF CALCULATION :  UNRESTRICTED OPEN SHELL
 KOHN-SHAM HAMILTONIAN

 (EXCHANGE)[CORRELATION] FUNCTIONAL:(PERDEW-BURKE-ERNZERHOF)[PERDEW-BURKE-ERNZERHOF]


 HYBRID EXCHANGE - PERCENTAGE OF FOCK EXCHANGE    25.0000

 SPIN POLARIZED DFT SELECTED
 CORE  PSEUDO POTENTIAL         TOL. ON PSEUDO              (TP) 10**- 6

 CAPPA:IS1  6;IS2  6;IS3  4; K PTS MONK NET  39; SYMMOPS:K SPACE   8;G SPACE   8

 *******************************************************************************
 MAX NUMBER OF SCF CYCLES     200  CONVERGENCE ON DELTAP        10**-20
 WEIGHT OF F(I) IN F(I+1)      90% CONVERGENCE ON ENERGY        10**-10
 SHRINK. FACT.(MONKH.)    6  6  4  NUMBER OF K POINTS IN THE IBZ     39
 SHRINKING FACTOR(GILAT NET)   12  NUMBER OF K POINTS(GILAT NET)    215
 *******************************************************************************
 *** K POINTS COORDINATES (OBLIQUE COORDINATES IN UNITS OF IS =  6)
   1-R(  0  0  0)   2-C(  1  0  0)   3-C(  2  0  0)   4-R(  3  0  0)
   5-C(  1  1  0)   6-C(  2  1  0)   7-C(  3  1  0)   8-C(  4  1  0)
   9-C(  5  1  0)  10-C(  2  2  0)  11-C(  3  2  0)  12-C(  4  2  0)
  13-R(  3  3  0)  14-C(  0  0  1)  15-C(  1  0  1)  16-C(  2  0  1)
  17-C(  3  0  1)  18-C(  1  1  1)  19-C(  2  1  1)  20-C(  3  1  1)
  21-C(  4  1  1)  22-C(  5  1  1)  23-C(  2  2  1)  24-C(  3  2  1)
  25-C(  4  2  1)  26-C(  3  3  1)  27-R(  0  0  2)  28-C(  1  0  2)
  29-C(  2  0  2)  30-R(  3  0  2)  31-C(  1  1  2)  32-C(  2  1  2)
  33-C(  3  1  2)  34-C(  4  1  2)  35-C(  5  1  2)  36-C(  2  2  2)
  37-C(  3  2  2)  38-C(  4  2  2)  39-R(  3  3  2)

 DIRECT LATTICE VECTORS COMPON. (A.U.)     RECIP. LATTICE VECTORS COMPON. (A.U.) 
        X            Y            Z              X            Y            Z
   14.8451216    0.0000000    0.0000000      0.4232492    0.0000000    0.0000000
    0.0000000   14.8451216    0.0000000      0.0000000    0.4232492    0.0000000
    0.0000000    0.0000000    6.4889416      0.0000000    0.0000000    0.9682912

 DISK SPACE FOR EIGENVECTORS (FTN 10)    11520000 REALS

 SYMMETRY ADAPTION OF THE BLOCH FUNCTIONS ENABLED
 TTTTTTTTTTTTTTTTTTTTTTTTTTTTTT gordsh1     TELAPSE        0.47 TCPU        0.03

 MATRIX SIZE: P(G) 1263000, F(G)  225436, P(G) IRR  107440, F(G) IRR   42582
 MAX G-VECTOR INDEX FOR 1- AND 2-ELECTRON INTEGRALS 103

 TTTTTTTTTTTTTTTTTTTTTTTTTTTTTT INPUT       TELAPSE        0.47 TCPU        0.03

 NEIGHBORS OF THE NON-EQUIVALENT ATOMS

 N = NUMBER OF NEIGHBORS AT DISTANCE R
    ATOM  N     R/ANG      R/AU   NEIGHBORS (ATOM LABELS AND CELL INDICES)
   1 SR   8     2.6086     4.9295    9 O    0 0 0    9 O    0 0 1   10 O    0 0 0
                                    10 O    0 0 1   13 O    0 0 1   13 O    0 0 0
                                    15 O    0 0 1   15 O    0 0 0
   1 SR   8     3.2652     6.1704    5 CU   0 0 0    5 CU   0 0 1    6 CU   0 0 0
                                     6 CU   0 0 1    7 CU   0 0 0    7 CU   0 0 1
                                     8 CU   0 0 0    8 CU   0 0 1
   1 SR   2     3.4338     6.4889    1 SR   0 0-1    1 SR   0 0 1
   1 SR   4     3.9278     7.4226    2 SR   0 0 0    2 SR   0-1 0    3 SR  -1 0 0
                                     3 SR   0 0 0
   1 SR  16     4.7152     8.9104   11 O    0 0 0   11 O    0 0 1   11 O   -1 0 0
                                    11 O   -1 0 1   12 O   -1 0 0   12 O   -1 0 1
                                    12 O    0 0 0   12 O    0 0 1   14 O    0 0 1
                                    14 O    0 0 0   14 O    0-1 1   14 O    0-1 0
                                    16 O    0-1 1   16 O    0-1 0   16 O    0 0 1
                                    16 O    0 0 0
   1 SR   8     5.2172     9.8590    2 SR   0 0 1    2 SR   0 0-1    2 SR   0-1-1
                                     2 SR   0-1 1    3 SR  -1 0-1    3 SR  -1 0 1
                                     3 SR   0 0 1    3 SR   0 0-1

   2 SR   8     2.6086     4.9295    9 O    0 1 0    9 O    0 1 1   10 O    0 0 0
                                    10 O    0 0 1   14 O    0 0 1   14 O    0 0 0
                                    16 O    0 0 1   16 O    0 0 0
   2 SR   8     3.2652     6.1704    5 CU   0 1 0    5 CU   0 1 1    6 CU   0 0 0
                                     6 CU   0 0 1    7 CU   0 1 0    7 CU   0 1 1
                                     8 CU   0 0 0    8 CU   0 0 1
   2 SR   2     3.4338     6.4889    2 SR   0 0-1    2 SR   0 0 1
   2 SR   4     3.9278     7.4226    1 SR   0 0 0    1 SR   0 1 0    4 SR  -1 0 0
                                     4 SR   0 0 0
   2 SR  16     4.7152     8.9104   11 O    0 1 0   11 O    0 1 1   11 O   -1 1 0
                                    11 O   -1 1 1   12 O   -1 0 0   12 O   -1 0 1
                                    12 O    0 0 0   12 O    0 0 1   13 O    0 0 1
                                    13 O    0 0 0   13 O    0 1 1   13 O    0 1 0
                                    15 O    0 1 1   15 O    0 1 0   15 O    0 0 1
                                    15 O    0 0 0
   2 SR   8     5.2172     9.8590    1 SR   0 0-1    1 SR   0 0 1    1 SR   0 1 1
                                     1 SR   0 1-1    4 SR  -1 0-1    4 SR  -1 0 1
                                     4 SR   0 0 1    4 SR   0 0-1

   4 SR   8     2.6086     4.9295   11 O    0 1 0   11 O    0 1 1   12 O    0 0 0
                                    12 O    0 0 1   14 O    1 0 1   14 O    1 0 0
                                    16 O    0 0 1   16 O    0 0 0
   4 SR   8     3.2652     6.1704    5 CU   1 1 0    5 CU   1 1 1    6 CU   1 0 0
                                     6 CU   1 0 1    7 CU   0 1 0    7 CU   0 1 1
                                     8 CU   0 0 0    8 CU   0 0 1
   4 SR   2     3.4338     6.4889    4 SR   0 0-1    4 SR   0 0 1
   4 SR   4     3.9278     7.4226    2 SR   1 0 0    2 SR   0 0 0    3 SR   0 0 0
                                     3 SR   0 1 0
   4 SR  16     4.7152     8.9104    9 O    0 1 0    9 O    0 1 1    9 O    1 1 0
                                     9 O    1 1 1   10 O    1 0 0   10 O    1 0 1
                                    10 O    0 0 0   10 O    0 0 1   13 O    1 0 1
                                    13 O    1 0 0   13 O    1 1 1   13 O    1 1 0
                                    15 O    0 1 1   15 O    0 1 0   15 O    0 0 1
                                    15 O    0 0 0
   4 SR   8     5.2172     9.8590    2 SR   1 0 1    2 SR   1 0-1    2 SR   0 0-1
                                     2 SR   0 0 1    3 SR   0 0-1    3 SR   0 0 1
                                     3 SR   0 1 1    3 SR   0 1-1

   5 CU   4     1.9639     3.7113    9 O    0 0 0   11 O   -1 0 0   13 O    0 0 0
                                    14 O    0-1 0
   5 CU   8     3.2652     6.1704    1 SR   0 0 0    1 SR   0 0-1    2 SR   0-1 0
                                     2 SR   0-1-1    3 SR  -1 0-1    3 SR  -1 0 0
                                     4 SR  -1-1 0    4 SR  -1-1-1
   5 CU   2     3.4338     6.4889    5 CU   0 0-1    5 CU   0 0 1
   5 CU   4     3.9278     7.4226    6 CU   0 0 0    6 CU   0-1 0    7 CU   0 0 0
                                     7 CU  -1 0 0
   5 CU   8     3.9558     7.4753    9 O    0 0 1    9 O    0 0-1   11 O   -1 0-1
                                    11 O   -1 0 1   13 O    0 0 1   13 O    0 0-1
                                    14 O    0-1 1   14 O    0-1-1
   5 CU   8     4.3915     8.2987   10 O    0 0 0   10 O    0-1 0   12 O   -1 0 0
                                    12 O   -1-1 0   15 O    0 0 0   15 O   -1 0 0
                                    16 O    0-1 0   16 O   -1-1 0

   6 CU   4     1.9639     3.7113   10 O    0 0 0   12 O   -1 0 0   13 O    0 0 0
                                    14 O    0 0 0
   6 CU   8     3.2652     6.1704    1 SR   0 0 0    1 SR   0 0-1    2 SR   0 0 0
                                     2 SR   0 0-1    3 SR  -1 0-1    3 SR  -1 0 0
                                     4 SR  -1 0 0    4 SR  -1 0-1
   6 CU   2     3.4338     6.4889    6 CU   0 0-1    6 CU   0 0 1
   6 CU   4     3.9278     7.4226    5 CU   0 0 0    5 CU   0 1 0    8 CU   0 0 0
                                     8 CU  -1 0 0
   6 CU   8     3.9558     7.4753   10 O    0 0 1   10 O    0 0-1   12 O   -1 0-1
                                    12 O   -1 0 1   13 O    0 0-1   13 O    0 0 1
                                    14 O    0 0 1   14 O    0 0-1
   6 CU   8     4.3915     8.2987    9 O    0 0 0    9 O    0 1 0   11 O   -1 0 0
                                    11 O   -1 1 0   15 O    0 0 0   15 O   -1 0 0
                                    16 O    0 0 0   16 O   -1 0 0

   9 O    2     1.9639     3.7113    5 CU   0 0 0    7 CU   0 0 0
   9 O    4     2.6086     4.9295    1 SR   0 0 0    1 SR   0 0-1    2 SR   0-1 0
                                     2 SR   0-1-1
   9 O    4     2.7774     5.2485   13 O    0 0 0   14 O    0-1 0   15 O    0 0 0
                                    16 O    0-1 0
   9 O    2     3.4338     6.4889    9 O    0 0-1    9 O    0 0 1
   9 O    4     3.9278     7.4226   10 O    0 0 0   10 O    0-1 0   11 O   -1 0 0
                                    11 O    0 0 0
   9 O    4     3.9558     7.4753    5 CU   0 0-1    5 CU   0 0 1    7 CU   0 0 1
                                     7 CU   0 0-1

  11 O    2     1.9639     3.7113    5 CU   1 0 0    7 CU   0 0 0
  11 O    4     2.6086     4.9295    3 SR   0 0 0    3 SR   0 0-1    4 SR   0-1 0
                                     4 SR   0-1-1
  11 O    4     2.7774     5.2485   13 O    1 0 0   14 O    1-1 0   15 O    0 0 0
                                    16 O    0-1 0
  11 O    2     3.4338     6.4889   11 O    0 0-1   11 O    0 0 1
  11 O    4     3.9278     7.4226    9 O    1 0 0    9 O    0 0 0   12 O    0 0 0
                                    12 O    0-1 0
  11 O    4     3.9558     7.4753    5 CU   1 0 1    5 CU   1 0-1    7 CU   0 0 1
                                     7 CU   0 0-1


 SYMMETRY ALLOWED INTERNAL DEGREE(S) OF FREEDOM:   6
 TTTTTTTTTTTTTTTTTTTTTTTTTTTTTT SYMM        TELAPSE        0.75 TCPU        0.25
 TTTTTTTTTTTTTTTTTTTTTTTTTTTTTT INT_SCREEN  TELAPSE        0.76 TCPU        0.25
 INFORMATION **** EXCBUF **** EXCH. BIPO BUFFER: WORDS USED =     4156200

 DFT PARAMETERS

     ATOM       ELECTRONS   NET CHARGE   R(ANGSTROM)
   1 238  SR      2.0000      0.0000     2.15000000
   5 229  CU     19.0000      0.0000     1.28000000
   9 208  O       6.0000      0.0000     0.74000000
[golub049:87288] 15 more processes have sent help message help-mpi-btl-base.txt / btl:no-nics
[golub049:87288] Set MCA parameter "orte_base_help_aggregate" to 0 to see all help / error messages

 SIZE OF GRID=      44163
 TTTTTTTTTTTTTTTTTTTTTTTTTTTTTT MAKE_GRID2  TELAPSE        7.21 TCPU        6.69
 BECKE WEIGHT FUNCTION
 RADSAFE =     2.00
 TOLERANCES - DENSITY:10**- 6; POTENTIAL:10**- 9; GRID WGT:10**-14

 RADIAL INTEGRATION  - INTERVALS (POINTS,UPPER LIMIT):            1( 75,  4.0*R)

 ANGULAR INTEGRATION - INTERVALS (ACCURACY LEVEL [N. POINTS] UPPER LIMIT):
  1(  4[  86]   0.2)  2(  8[ 194]   0.5)  3( 12[ 350]   0.9)  4( 16[ 974]   3.5)
  5( 12[ 350]9999.0)
 TTTTTTTTTTTTTTTTTTTTTTTTTTTTTT INT_CALC    TELAPSE        7.23 TCPU        6.72
 EEEEEEEEEE INT_CALC TERMINATION  DATE 02 12 2018 TIME 22:13:48.5

 *******************************************************************************
 Generated by CrystalWriter                                                      
 CRYSTAL - SCF - TYPE OF CALCULATION :  UNRESTRICTED OPEN SHELL
 *******************************************************************************

 CAPPA:IS1  6;IS2  6;IS3  4; K PTS MONK NET  39; SYMMOPS:K SPACE   8;G SPACE   8

 TTTTTTTTTTTTTTTTTTTTTTTTTTTTTT SDIK        TELAPSE        7.53 TCPU        6.78

 AAAAAAAAAAAAAAAAAAAAAAAAAAAAAAAAAAAAAAAAAAAAAAAAAAAAAAAAAAAAAAAAAAAAAAAAAAAAAAA
         ATOMIC WAVEFUNCTION(S)


 NUCLEAR CHARGE  2.0  SYMMETRY SPECIES            S
 N. ELECTRONS    2.0  NUMBER OF PRIMITIVE GTOS    8
                      NUMBER OF CONTRACTED GTOS   3
                      NUMBER OF CLOSED SHELLS     1
                      OPEN SHELL OCCUPATION       0

  ZNUC SCFIT  TOTAL HF ENERGY   KINETIC ENERGY   VIRIAL THEOREM ACCURACY
   2.0   2    4.768442247E-02  9.318589797E-01 -9.488287139E-01  3.2E-06

 NUCLEAR CHARGE 19.0  SYMMETRY SPECIES            S    P    D
 N. ELECTRONS   19.0  NUMBER OF PRIMITIVE GTOS   14    9    7
                      NUMBER OF CONTRACTED GTOS   4    3    3
                      NUMBER OF CLOSED SHELLS     2    1    0
                      OPEN SHELL OCCUPATION       0    0    9

  ZNUC SCFIT  TOTAL HF ENERGY   KINETIC ENERGY   VIRIAL THEOREM ACCURACY
  19.0  29   -1.960760767E+02  1.241876446E+02 -2.578869438E+00  4.6E-06

 NUCLEAR CHARGE  6.0  SYMMETRY SPECIES            S    P
 N. ELECTRONS    6.0  NUMBER OF PRIMITIVE GTOS   10    9
                      NUMBER OF CONTRACTED GTOS   3    3
                      NUMBER OF CLOSED SHELLS     1    0
                      OPEN SHELL OCCUPATION       0    4

  ZNUC SCFIT  TOTAL HF ENERGY   KINETIC ENERGY   VIRIAL THEOREM ACCURACY
   6.0  12   -1.570132578E+01  1.165279602E+01 -2.347429900E+00  3.6E-06

 AAAAAAAAAAAAAAAAAAAAAAAAAAAAAAAAAAAAAAAAAAAAAAAAAAAAAAAAAAAAAAAAAAAAAAAAAAAAAAA

 CHARGE NORMALIZATION FACTOR   1.00000000
 TOTAL ATOMIC CHARGES:
   2.0000000   2.0000000   2.0000000   2.0000000  19.0000000  19.0000000
  19.0000000  19.0000000   6.0000000   6.0000000   6.0000000   6.0000000
   6.0000000   6.0000000   6.0000000   6.0000000
 SUMMED SPIN DENSITY           0.00000000
 TOTAL ATOMIC SPINS  :
   0.0000000   0.0000000   0.0000000   0.0000000   1.0000000  -1.0000000
  -1.0000000   1.0000000   0.0000000   0.0000000   0.0000000   0.0000000
   0.0000000   0.0000000   0.0000000   0.0000000
 TTTTTTTTTTTTTTTTTTTTTTTTTTTTTT MOQGAD      TELAPSE        8.27 TCPU        7.53
 TTTTTTTTTTTTTTTTTTTTTTTTTTTTTT SHELLXN     TELAPSE      100.01 TCPU       99.10
 TTTTTTTTTTTTTTTTTTTTTTTTTTTTTT MONMO3      TELAPSE      102.99 TCPU      102.08
 NUMERICALLY INTEGRATED DENSITY     66.0001976543     66.0001976541
 TTTTTTTTTTTTTTTTTTTTTTTTTTTTTT NUMDFT      TELAPSE      103.65 TCPU      102.73
 CYC   0 ETOT(AU) -9.158586472635E+02 DETOT -9.16E+02 tst  0.00E+00 PX  1.00E+00
 CYCLE  0 WAVE FUNCTION SAVED IN FORTRAN UNIT 79
 TTTTTTTTTTTTTTTTTTTTTTTTTTTTTT DIIS        TELAPSE      104.90 TCPU      103.41
 TTTTTTTTTTTTTTTTTTTTTTTTTTTTTT FDIK        TELAPSE      108.37 TCPU      106.79
 SPIN LOCKING: NO ENERGY GAP COMPUTED
 TTTTTTTTTTTTTTTTTTTTTTTTTTTTTT PDIG        TELAPSE      108.60 TCPU      107.02
 CHARGE NORMALIZATION FACTOR   1.00000000
 TOTAL ATOMIC CHARGES:
   0.1484167   0.1484167   0.1484167   0.1484167  17.8007671  17.8007675
  17.8007675  17.8007671   7.5254083   7.5254083   7.5254077   7.5254077
   7.5254083   7.5254077   7.5254083   7.5254077
 SUMMED SPIN DENSITY           0.00000000
 TOTAL ATOMIC SPINS  :
   0.0000000  -0.0000000  -0.0000000   0.0000000   0.6249751  -0.6249751
  -0.6249751   0.6249751  -0.0000000  -0.0000000   0.0000000   0.0000000
  -0.0000000   0.0000000  -0.0000000   0.0000000
 TTTTTTTTTTTTTTTTTTTTTTTTTTTTTT MOQGAD      TELAPSE      108.63 TCPU      107.05
 TTTTTTTTTTTTTTTTTTTTTTTTTTTTTT SHELLXN     TELAPSE      206.72 TCPU      204.59
 TTTTTTTTTTTTTTTTTTTTTTTTTTTTTT MONMO3      TELAPSE      208.99 TCPU      206.86
 NUMERICALLY INTEGRATED DENSITY     66.0003947297     66.0003947266
 TTTTTTTTTTTTTTTTTTTTTTTTTTTTTT NUMDFT      TELAPSE      210.99 TCPU      208.86
 CYC   1 ETOT(AU) -9.202082751685E+02 DETOT -4.35E+00 tst  0.00E+00 PX  1.00E+00
 CYCLE  1 WAVE FUNCTION SAVED IN FORTRAN UNIT 79
 TTTTTTTTTTTTTTTTTTTTTTTTTTTTTT DIIS        TELAPSE      212.82 TCPU      209.53
 DIIS TEST: 0.80084E+01 AT SCF   CYCLE   1 - MIX   90 %
 TTTTTTTTTTTTTTTTTTTTTTTTTTTTTT FDIK        TELAPSE      214.06 TCPU      210.73
 SPIN LOCKING: NO ENERGY GAP COMPUTED
 TTTTTTTTTTTTTTTTTTTTTTTTTTTTTT PDIG        TELAPSE      214.29 TCPU      210.96
 CHARGE NORMALIZATION FACTOR   1.00000000
 TOTAL ATOMIC CHARGES:
   0.1551636   0.1551609   0.1551609   0.1551574  17.9072387  17.9072220
  17.9072220  17.9072387   7.4688089   7.4688089   7.4688001   7.4688001
   7.4688089   7.4688001   7.4688089   7.4688001
 SUMMED SPIN DENSITY           0.00000000
 TOTAL ATOMIC SPINS  :
  -0.0000043  -0.0000034  -0.0000034   0.0000054   0.5705265  -0.5705227
  -0.5705227   0.5705265  -0.0000020  -0.0000020   0.0000016   0.0000016
  -0.0000020   0.0000016  -0.0000020   0.0000016
 TTTTTTTTTTTTTTTTTTTTTTTTTTTTTT MOQGAD      TELAPSE      214.32 TCPU      210.99
 TTTTTTTTTTTTTTTTTTTTTTTTTTTTTT SHELLXN     TELAPSE      312.03 TCPU      308.52
 TTTTTTTTTTTTTTTTTTTTTTTTTTTTTT MONMO3      TELAPSE      314.86 TCPU      311.33
 NUMERICALLY INTEGRATED DENSITY     66.0004183074     66.0004183040
 TTTTTTTTTTTTTTTTTTTTTTTTTTTTTT NUMDFT      TELAPSE      316.82 TCPU      313.29
 CYC   2 ETOT(AU) -9.206958531766E+02 DETOT -4.88E-01 tst  1.30E-03 PX  9.44E-02
 CYCLE  2 WAVE FUNCTION SAVED IN FORTRAN UNIT 79
 TTTTTTTTTTTTTTTTTTTTTTTTTTTTTT DIIS        TELAPSE      318.12 TCPU      314.09
 DIIS TEST: 0.40466E+01 AT SCF   CYCLE   2 - DIIS ACTIVE - HISTORY:     2 CYCLES
 TTTTTTTTTTTTTTTTTTTTTTTTTTTTTT FDIK        TELAPSE      319.55 TCPU      315.51
 SPIN LOCKING: NO ENERGY GAP COMPUTED
 TTTTTTTTTTTTTTTTTTTTTTTTTTTTTT PDIG        TELAPSE      319.78 TCPU      315.74
 CHARGE NORMALIZATION FACTOR   1.00000000
 TOTAL ATOMIC CHARGES:
   0.1937221   0.1937346   0.1937346   0.1937275  17.9162731  17.9167133
  17.9167133  17.9162731   7.4449006   7.4449006   7.4448765   7.4448765
   7.4449006   7.4448765   7.4449006   7.4448765
 SUMMED SPIN DENSITY           0.00000000
 TOTAL ATOMIC SPINS  :
   0.0000039   0.0000313   0.0000313  -0.0000109   0.5934759  -0.5934072
  -0.5934072   0.5934759  -0.0000431  -0.0000431  -0.0000051  -0.0000051
  -0.0000431  -0.0000051  -0.0000431  -0.0000051
 TTTTTTTTTTTTTTTTTTTTTTTTTTTTTT MOQGAD      TELAPSE      319.81 TCPU      315.77
 TTTTTTTTTTTTTTTTTTTTTTTTTTTTTT SHELLXN     TELAPSE      417.33 TCPU      413.28
 TTTTTTTTTTTTTTTTTTTTTTTTTTTTTT MONMO3      TELAPSE      420.28 TCPU      416.22
 NUMERICALLY INTEGRATED DENSITY     66.0004747143     66.0004747053
 TTTTTTTTTTTTTTTTTTTTTTTTTTTTTT NUMDFT      TELAPSE      422.25 TCPU      418.19
 CYC   3 ETOT(AU) -9.209439765301E+02 DETOT -2.48E-01 tst  8.59E-03 PX  2.77E-01
 CYCLE  3 WAVE FUNCTION SAVED IN FORTRAN UNIT 79
 TTTTTTTTTTTTTTTTTTTTTTTTTTTTTT DIIS        TELAPSE      422.47 TCPU      418.26
 DIIS TEST: 0.28820E+01 AT SCF   CYCLE   3 - DIIS ACTIVE - HISTORY:     3 CYCLES
 TTTTTTTTTTTTTTTTTTTTTTTTTTTTTT FDIK        TELAPSE      423.80 TCPU      419.57
 SPIN LOCKING: NO ENERGY GAP COMPUTED
 TTTTTTTTTTTTTTTTTTTTTTTTTTTTTT PDIG        TELAPSE      424.02 TCPU      419.80
 CHARGE NORMALIZATION FACTOR   1.00000000
 TOTAL ATOMIC CHARGES:
   0.1650823   0.1650812   0.1650812   0.1650855  18.0055399  18.0055671
  18.0055671  18.0055399   7.4146758   7.4146758   7.4146882   7.4146882
   7.4146758   7.4146882   7.4146758   7.4146882
 SUMMED SPIN DENSITY          -0.00000000
 TOTAL ATOMIC SPINS  :
   0.0000068   0.0000251   0.0000251   0.0000135   0.5410599  -0.5411715
  -0.5411715   0.5410599   0.0000053   0.0000053   0.0000329   0.0000329
   0.0000053   0.0000329   0.0000053   0.0000329
 TTTTTTTTTTTTTTTTTTTTTTTTTTTTTT MOQGAD      TELAPSE      424.05 TCPU      419.83
 TTTTTTTTTTTTTTTTTTTTTTTTTTTTTT SHELLXN     TELAPSE      521.99 TCPU      517.47
 TTTTTTTTTTTTTTTTTTTTTTTTTTTTTT MONMO3      TELAPSE      524.42 TCPU      519.90
 NUMERICALLY INTEGRATED DENSITY     66.0004731655     66.0004731604
 TTTTTTTTTTTTTTTTTTTTTTTTTTTTTT NUMDFT      TELAPSE      526.54 TCPU      522.02
 CYC   4 ETOT(AU) -9.212336053301E+02 DETOT -2.90E-01 tst  2.37E-03 PX  1.47E-01
 CYCLE  4 WAVE FUNCTION SAVED IN FORTRAN UNIT 79
 TTTTTTTTTTTTTTTTTTTTTTTTTTTTTT DIIS        TELAPSE      526.77 TCPU      522.22
 DIIS TEST: 0.19725E-01 AT SCF   CYCLE   4 - DIIS ACTIVE - HISTORY:     4 CYCLES
 TTTTTTTTTTTTTTTTTTTTTTTTTTTTTT FDIK        TELAPSE      528.04 TCPU      523.50
 SPIN LOCKING: NO ENERGY GAP COMPUTED
 TTTTTTTTTTTTTTTTTTTTTTTTTTTTTT PDIG        TELAPSE      528.27 TCPU      523.72
 CHARGE NORMALIZATION FACTOR   1.00000000
 TOTAL ATOMIC CHARGES:
   0.1650308   0.1650267   0.1650267   0.1650316  18.0099196  18.0102752
  18.0102752  18.0099196   7.4124333   7.4124333   7.4124403   7.4124403
   7.4124333   7.4124403   7.4124333   7.4124403
 SUMMED SPIN DENSITY           0.00000000
 TOTAL ATOMIC SPINS  :
   0.0000016   0.0000034   0.0000034   0.0000021   0.5656130  -0.5653858
  -0.5653858   0.5656130  -0.0000640  -0.0000640  -0.0000522  -0.0000522
  -0.0000640  -0.0000522  -0.0000640  -0.0000522
 TTTTTTTTTTTTTTTTTTTTTTTTTTTTTT MOQGAD      TELAPSE      528.30 TCPU      523.75
 TTTTTTTTTTTTTTTTTTTTTTTTTTTTTT SHELLXN     TELAPSE      625.90 TCPU      621.24
 TTTTTTTTTTTTTTTTTTTTTTTTTTTTTT MONMO3      TELAPSE      628.72 TCPU      624.05
 NUMERICALLY INTEGRATED DENSITY     66.0004747607     66.0004747556
 TTTTTTTTTTTTTTTTTTTTTTTTTTTTTT NUMDFT      TELAPSE      630.72 TCPU      626.05
 CYC   5 ETOT(AU) -9.212374560336E+02 DETOT -3.85E-03 tst  4.84E-04 PX  4.02E-02
 CYCLE  5 WAVE FUNCTION SAVED IN FORTRAN UNIT 79
 TTTTTTTTTTTTTTTTTTTTTTTTTTTTTT DIIS        TELAPSE      630.93 TCPU      626.21
 DIIS TEST: 0.23793E-02 AT SCF   CYCLE   5 - DIIS ACTIVE - HISTORY:     5 CYCLES
 TTTTTTTTTTTTTTTTTTTTTTTTTTTTTT FDIK        TELAPSE      632.16 TCPU      627.44
 SPIN LOCKING: NO ENERGY GAP COMPUTED
 TTTTTTTTTTTTTTTTTTTTTTTTTTTTTT PDIG        TELAPSE      632.39 TCPU      627.66
 CHARGE NORMALIZATION FACTOR   1.00000000
 TOTAL ATOMIC CHARGES:
   0.1656488   0.1656469   0.1656469   0.1656488  18.0101090  18.0083308
  18.0083308  18.0101090   7.4125661   7.4125661   7.4125662   7.4125662
   7.4125661   7.4125662   7.4125661   7.4125662
 SUMMED SPIN DENSITY           0.00000000
 TOTAL ATOMIC SPINS  :
   0.0000012   0.0000009   0.0000009   0.0000018   0.5804481  -0.5811432
  -0.5811432   0.5804481   0.0001728   0.0001728   0.0001735   0.0001735
   0.0001728   0.0001735   0.0001728   0.0001735
 TTTTTTTTTTTTTTTTTTTTTTTTTTTTTT MOQGAD      TELAPSE      632.42 TCPU      627.69
 TTTTTTTTTTTTTTTTTTTTTTTTTTTTTT SHELLXN     TELAPSE      730.10 TCPU      725.22
 TTTTTTTTTTTTTTTTTTTTTTTTTTTTTT MONMO3      TELAPSE      732.82 TCPU      727.94
 NUMERICALLY INTEGRATED DENSITY     66.0004750927     66.0004751134
 TTTTTTTTTTTTTTTTTTTTTTTTTTTTTT NUMDFT      TELAPSE      734.85 TCPU      729.96
 CYC   6 ETOT(AU) -9.212379882583E+02 DETOT -5.32E-04 tst  1.26E-04 PX  2.06E-02
 CYCLE  6 WAVE FUNCTION SAVED IN FORTRAN UNIT 79
 TTTTTTTTTTTTTTTTTTTTTTTTTTTTTT DIIS        TELAPSE      735.16 TCPU      730.07
 DIIS TEST: 0.15934E-03 AT SCF   CYCLE   6 - DIIS ACTIVE - HISTORY:     6 CYCLES
 TTTTTTTTTTTTTTTTTTTTTTTTTTTTTT FDIK        TELAPSE      736.31 TCPU      731.22
 SPIN LOCKING: NO ENERGY GAP COMPUTED
 TTTTTTTTTTTTTTTTTTTTTTTTTTTTTT PDIG        TELAPSE      736.53 TCPU      731.44
 CHARGE NORMALIZATION FACTOR   1.00000000
 TOTAL ATOMIC CHARGES:
   0.1656761   0.1656768   0.1656768   0.1656758  18.0071337  18.0126432
  18.0126432  18.0071337   7.4122184   7.4122184   7.4122168   7.4122168
   7.4122184   7.4122168   7.4122184   7.4122168
 SUMMED SPIN DENSITY           0.00000000
 TOTAL ATOMIC SPINS  :
  -0.0000093  -0.0000094  -0.0000094  -0.0000090   0.5851356  -0.5830608
  -0.5830608   0.5851356  -0.0005142  -0.0005142  -0.0005139  -0.0005139
  -0.0005142  -0.0005139  -0.0005142  -0.0005139
 TTTTTTTTTTTTTTTTTTTTTTTTTTTTTT MOQGAD      TELAPSE      736.56 TCPU      731.47
 TTTTTTTTTTTTTTTTTTTTTTTTTTTTTT SHELLXN     TELAPSE      834.09 TCPU      828.97
 TTTTTTTTTTTTTTTTTTTTTTTTTTTTTT MONMO3      TELAPSE      837.14 TCPU      832.01
 NUMERICALLY INTEGRATED DENSITY     66.0004751538     66.0004750762
 TTTTTTTTTTTTTTTTTTTTTTTTTTTTTT NUMDFT      TELAPSE      839.13 TCPU      834.00
 CYC   7 ETOT(AU) -9.212379893716E+02 DETOT -1.11E-06 tst  8.51E-06 PX  4.45E-03
 CYCLE  7 WAVE FUNCTION SAVED IN FORTRAN UNIT 79
 TTTTTTTTTTTTTTTTTTTTTTTTTTTTTT DIIS        TELAPSE      839.34 TCPU      834.13
 DIIS TEST: 0.27748E-03 AT SCF   CYCLE   7 - DIIS ACTIVE - HISTORY:     7 CYCLES
 TTTTTTTTTTTTTTTTTTTTTTTTTTTTTT FDIK        TELAPSE      840.72 TCPU      835.51
 SPIN LOCKING: NO ENERGY GAP COMPUTED
 TTTTTTTTTTTTTTTTTTTTTTTTTTTTTT PDIG        TELAPSE      840.95 TCPU      835.74
 CHARGE NORMALIZATION FACTOR   1.00000000
 TOTAL ATOMIC CHARGES:
   0.1656894   0.1656901   0.1656901   0.1656894  18.0103651  18.0097190
  18.0097190  18.0103651   7.4121347   7.4121347   7.4121335   7.4121335
   7.4121347   7.4121335   7.4121347   7.4121335
 SUMMED SPIN DENSITY           0.00000000
 TOTAL ATOMIC SPINS  :
   0.0000008   0.0000007   0.0000007   0.0000010   0.5847355  -0.5849696
  -0.5849696   0.5847355   0.0000578   0.0000578   0.0000584   0.0000584
   0.0000578   0.0000584   0.0000578   0.0000584
 TTTTTTTTTTTTTTTTTTTTTTTTTTTTTT MOQGAD      TELAPSE      840.98 TCPU      835.77
 TTTTTTTTTTTTTTTTTTTTTTTTTTTTTT SHELLXN     TELAPSE      938.72 TCPU      933.29
 TTTTTTTTTTTTTTTTTTTTTTTTTTTTTT MONMO3      TELAPSE      941.38 TCPU      935.95
 NUMERICALLY INTEGRATED DENSITY     66.0004751244     66.0004751292
 TTTTTTTTTTTTTTTTTTTTTTTTTTTTTT NUMDFT      TELAPSE      943.34 TCPU      937.91
 CYC   8 ETOT(AU) -9.212380152062E+02 DETOT -2.58E-05 tst  1.66E-06 PX  2.09E-03
 CYCLE  8 WAVE FUNCTION SAVED IN FORTRAN UNIT 79
 TTTTTTTTTTTTTTTTTTTTTTTTTTTTTT DIIS        TELAPSE      943.56 TCPU      938.10
 DIIS TEST: 0.58663E-05 AT SCF   CYCLE   8 - DIIS ACTIVE - HISTORY:     8 CYCLES
 TTTTTTTTTTTTTTTTTTTTTTTTTTTTTT FDIK        TELAPSE      945.09 TCPU      939.63
 SPIN LOCKING: NO ENERGY GAP COMPUTED
 TTTTTTTTTTTTTTTTTTTTTTTTTTTTTT PDIG        TELAPSE      945.31 TCPU      939.82
 CHARGE NORMALIZATION FACTOR   1.00000000
 TOTAL ATOMIC CHARGES:
   0.1657184   0.1657180   0.1657180   0.1657184  18.0100220  18.0100321
  18.0100321  18.0100220   7.4121273   7.4121273   7.4121274   7.4121274
   7.4121273   7.4121274   7.4121273   7.4121274
 SUMMED SPIN DENSITY           0.00000000
 TOTAL ATOMIC SPINS  :
  -0.0000001  -0.0000002  -0.0000002  -0.0000001   0.5851996  -0.5851966
  -0.5851966   0.5851996  -0.0000008  -0.0000008  -0.0000006  -0.0000006
  -0.0000008  -0.0000006  -0.0000008  -0.0000006
 TTTTTTTTTTTTTTTTTTTTTTTTTTTTTT MOQGAD      TELAPSE      945.34 TCPU      939.85
 TTTTTTTTTTTTTTTTTTTTTTTTTTTTTT SHELLXN     TELAPSE     1043.00 TCPU     1037.40
 TTTTTTTTTTTTTTTTTTTTTTTTTTTTTT MONMO3      TELAPSE     1046.02 TCPU     1040.41
 NUMERICALLY INTEGRATED DENSITY     66.0004751616     66.0004751568
 TTTTTTTTTTTTTTTTTTTTTTTTTTTTTT NUMDFT      TELAPSE     1047.98 TCPU     1042.37
 CYC   9 ETOT(AU) -9.212380158270E+02 DETOT -6.21E-07 tst  3.83E-08 PX  2.78E-04
 CYCLE  9 WAVE FUNCTION SAVED IN FORTRAN UNIT 79
 TTTTTTTTTTTTTTTTTTTTTTTTTTTTTT DIIS        TELAPSE     1048.19 TCPU     1042.54
 DIIS TEST: 0.64699E-07 AT SCF   CYCLE   9 - DIIS ACTIVE - HISTORY:     9 CYCLES
 TTTTTTTTTTTTTTTTTTTTTTTTTTTTTT FDIK        TELAPSE     1049.54 TCPU     1043.88
 SPIN LOCKING: NO ENERGY GAP COMPUTED
 TTTTTTTTTTTTTTTTTTTTTTTTTTTTTT PDIG        TELAPSE     1049.77 TCPU     1044.10
 CHARGE NORMALIZATION FACTOR   1.00000000
 TOTAL ATOMIC CHARGES:
   0.1657175   0.1657179   0.1657179   0.1657177  18.0100358  18.0100349
  18.0100349  18.0100358   7.4121245   7.4121245   7.4121224   7.4121224
   7.4121245   7.4121224   7.4121245   7.4121224
 SUMMED SPIN DENSITY           0.00000000
 TOTAL ATOMIC SPINS  :
  -0.0000000  -0.0000000  -0.0000000  -0.0000000   0.5852968  -0.5852967
  -0.5852967   0.5852968  -0.0000001  -0.0000001   0.0000000   0.0000000
  -0.0000001   0.0000000  -0.0000001   0.0000000
 TTTTTTTTTTTTTTTTTTTTTTTTTTTTTT MOQGAD      TELAPSE     1049.79 TCPU     1044.13
 TTTTTTTTTTTTTTTTTTTTTTTTTTTTTT SHELLXN     TELAPSE     1147.18 TCPU     1141.46
 TTTTTTTTTTTTTTTTTTTTTTTTTTTTTT MONMO3      TELAPSE     1150.46 TCPU     1144.75
 NUMERICALLY INTEGRATED DENSITY     66.0004751606     66.0004751556
 TTTTTTTTTTTTTTTTTTTTTTTTTTTTTT NUMDFT      TELAPSE     1152.42 TCPU     1146.71
 CYC  10 ETOT(AU) -9.212380158289E+02 DETOT -1.92E-09 tst  1.20E-09 PX  7.10E-05
 CYCLE 10 WAVE FUNCTION SAVED IN FORTRAN UNIT 79
 TTTTTTTTTTTTTTTTTTTTTTTTTTTTTT DIIS        TELAPSE     1152.60 TCPU     1146.78
 DIIS TEST: 0.36963E-08 AT SCF   CYCLE  10 - DIIS ACTIVE - HISTORY:    10 CYCLES
 TTTTTTTTTTTTTTTTTTTTTTTTTTTTTT FDIK        TELAPSE     1154.04 TCPU     1148.21
 SPIN LOCKING: NO ENERGY GAP COMPUTED
 TTTTTTTTTTTTTTTTTTTTTTTTTTTTTT PDIG        TELAPSE     1154.27 TCPU     1148.44
 CHARGE NORMALIZATION FACTOR   1.00000000
 TOTAL ATOMIC CHARGES:
   0.1657177   0.1657174   0.1657174   0.1657175  18.0100269  18.0100305
  18.0100305  18.0100269   7.4121254   7.4121254   7.4121283   7.4121283
   7.4121254   7.4121283   7.4121254   7.4121283
 SUMMED SPIN DENSITY          -0.00000000
 TOTAL ATOMIC SPINS  :
  -0.0000000  -0.0000000  -0.0000000  -0.0000000   0.5853092  -0.5853092
  -0.5853092   0.5853092  -0.0000000  -0.0000000   0.0000000   0.0000000
  -0.0000000   0.0000000  -0.0000000   0.0000000
 TTTTTTTTTTTTTTTTTTTTTTTTTTTTTT MOQGAD      TELAPSE     1154.30 TCPU     1148.47
 TTTTTTTTTTTTTTTTTTTTTTTTTTTTTT SHELLXN     TELAPSE     1251.42 TCPU     1245.55
 TTTTTTTTTTTTTTTTTTTTTTTTTTTTTT MONMO3      TELAPSE     1254.67 TCPU     1248.79
 NUMERICALLY INTEGRATED DENSITY     66.0004751604     66.0004751553
 TTTTTTTTTTTTTTTTTTTTTTTTTTTTTT NUMDFT      TELAPSE     1256.63 TCPU     1250.76
 CYC  11 ETOT(AU) -9.212380158291E+02 DETOT -2.78E-10 tst  1.12E-10 PX  2.56E-05
 CYCLE 11 WAVE FUNCTION SAVED IN FORTRAN UNIT 79
 TTTTTTTTTTTTTTTTTTTTTTTTTTTTTT DIIS        TELAPSE     1256.85 TCPU     1250.91
 DIIS TEST: 0.56492E-09 AT SCF   CYCLE  11 - DIIS ACTIVE - HISTORY:    11 CYCLES
 TTTTTTTTTTTTTTTTTTTTTTTTTTTTTT FDIK        TELAPSE     1258.22 TCPU     1252.28
 SPIN LOCKING: NO ENERGY GAP COMPUTED
 TTTTTTTTTTTTTTTTTTTTTTTTTTTTTT PDIG        TELAPSE     1258.45 TCPU     1252.50
 CHARGE NORMALIZATION FACTOR   1.00000000
 TOTAL ATOMIC CHARGES:
   0.1657171   0.1657174   0.1657174   0.1657174  18.0100290  18.0100276
  18.0100276  18.0100290   7.4121304   7.4121304   7.4121240   7.4121240
   7.4121304   7.4121240   7.4121304   7.4121240
 SUMMED SPIN DENSITY           0.00000000
 TOTAL ATOMIC SPINS  :
  -0.0000000  -0.0000000  -0.0000000  -0.0000000   0.5853113  -0.5853115
  -0.5853115   0.5853113   0.0000000   0.0000000   0.0000001   0.0000001
   0.0000000   0.0000001   0.0000000   0.0000001
 TTTTTTTTTTTTTTTTTTTTTTTTTTTTTT MOQGAD      TELAPSE     1258.48 TCPU     1252.53
 TTTTTTTTTTTTTTTTTTTTTTTTTTTTTT SHELLXN     TELAPSE     1355.69 TCPU     1349.66
 TTTTTTTTTTTTTTTTTTTTTTTTTTTTTT MONMO3      TELAPSE     1358.99 TCPU     1352.95
 NUMERICALLY INTEGRATED DENSITY     66.0004751603     66.0004751551
 TTTTTTTTTTTTTTTTTTTTTTTTTTTTTT NUMDFT      TELAPSE     1360.96 TCPU     1354.92
 CYC  12 ETOT(AU) -9.212380158289E+02 DETOT  2.26E-10 tst  6.67E-12 PX  6.15E-06
 CYCLE 12 WAVE FUNCTION SAVED IN FORTRAN UNIT 79
 TTTTTTTTTTTTTTTTTTTTTTTTTTTTTT DIIS        TELAPSE     1361.18 TCPU     1355.01
 DIIS TEST: 0.89600E-09 AT SCF   CYCLE  12 - DIIS ACTIVE - HISTORY:    12 CYCLES
 TTTTTTTTTTTTTTTTTTTTTTTTTTTTTT FDIK        TELAPSE     1362.65 TCPU     1356.48
 SPIN LOCKING: NO ENERGY GAP COMPUTED
 TTTTTTTTTTTTTTTTTTTTTTTTTTTTTT PDIG        TELAPSE     1362.88 TCPU     1356.70
 CHARGE NORMALIZATION FACTOR   1.00000000
 TOTAL ATOMIC CHARGES:
   0.1657172   0.1657173   0.1657173   0.1657171  18.0100286  18.0100278
  18.0100278  18.0100286   7.4121271   7.4121271   7.4121275   7.4121275
   7.4121271   7.4121275   7.4121271   7.4121275
 SUMMED SPIN DENSITY           0.00000000
 TOTAL ATOMIC SPINS  :
  -0.0000000  -0.0000000  -0.0000000   0.0000000   0.5853118  -0.5853120
  -0.5853120   0.5853118   0.0000000   0.0000000   0.0000001   0.0000001
   0.0000000   0.0000001   0.0000000   0.0000001
 TTTTTTTTTTTTTTTTTTTTTTTTTTTTTT MOQGAD      TELAPSE     1362.91 TCPU     1356.73
 TTTTTTTTTTTTTTTTTTTTTTTTTTTTTT SHELLXN     TELAPSE     1460.25 TCPU     1453.85
 TTTTTTTTTTTTTTTTTTTTTTTTTTTTTT MONMO3      TELAPSE     1463.40 TCPU     1457.00
 NUMERICALLY INTEGRATED DENSITY     66.0004751602     66.0004751551
 TTTTTTTTTTTTTTTTTTTTTTTTTTTTTT NUMDFT      TELAPSE     1465.36 TCPU     1458.97
 CYC  13 ETOT(AU) -9.212380158290E+02 DETOT -3.07E-11 tst  2.28E-12 PX  3.60E-06
 CYCLE 13 WAVE FUNCTION SAVED IN FORTRAN UNIT 79
 TTTTTTTTTTTTTTTTTTTTTTTTTTTTTT DIIS        TELAPSE     1465.55 TCPU     1459.06
 DIIS TEST: 0.44149E-10 AT SCF   CYCLE  13 - DIIS ACTIVE - HISTORY:    13 CYCLES
 TTTTTTTTTTTTTTTTTTTTTTTTTTTTTT FDIK        TELAPSE     1466.90 TCPU     1460.40
 SPIN LOCKING: NO ENERGY GAP COMPUTED
 TTTTTTTTTTTTTTTTTTTTTTTTTTTTTT PDIG        TELAPSE     1467.12 TCPU     1460.62
 CHARGE NORMALIZATION FACTOR   1.00000000
 TOTAL ATOMIC CHARGES:
   0.1657172   0.1657173   0.1657173   0.1657172  18.0100276  18.0100287
  18.0100287  18.0100276   7.4121277   7.4121277   7.4121269   7.4121269
   7.4121277   7.4121269   7.4121277   7.4121269
 SUMMED SPIN DENSITY           0.00000000
 TOTAL ATOMIC SPINS  :
  -0.0000000  -0.0000000  -0.0000000   0.0000000   0.5853115  -0.5853115
  -0.5853115   0.5853115  -0.0000000  -0.0000000   0.0000000   0.0000000
  -0.0000000   0.0000000  -0.0000000   0.0000000
 TTTTTTTTTTTTTTTTTTTTTTTTTTTTTT MOQGAD      TELAPSE     1467.15 TCPU     1460.65
 TTTTTTTTTTTTTTTTTTTTTTTTTTTTTT SHELLXN     TELAPSE     1564.36 TCPU     1557.81
 +++ ENERGIES IN A.U. +++
 ::: EXT EL-POLE                                  -4.6739506004346E+03
 ::: EXT EL-SPHEROPOLE                             2.2669890884402E+01
 ::: BIELET ZONE E-E                               5.0919917268835E+03
 ::: TOTAL E-E                                     4.4071101733329E+02
 ::: TOTAL E-N + N-E                              -1.4637136455414E+03
 ::: TOTAL N-N                                    -4.1431339568884E+02
 ::: KINETIC ENERGY                                5.9760322933399E+02
 ::: PSEUDO TOTAL   ENERGY                        -8.3971279456298E+02
 ::: VIRIAL COEFFICIENT                            8.3155439638629E-01
 TTTTTTTTTTTTTTTTTTTTTTTTTTTTTT MONMO3      TELAPSE     1567.59 TCPU     1561.03
 NUMERICALLY INTEGRATED DENSITY     66.0004751602     66.0004751551
 TTTTTTTTTTTTTTTTTTTTTTTTTTTTTT NUMDFT      TELAPSE     1569.55 TCPU     1563.00
 CYC  14 ETOT(AU) -9.212380158290E+02 DETOT -2.59E-11 tst  4.24E-13 PX  3.60E-06

 == SCF ENDED - CONVERGENCE ON ENERGY      E(AU) -9.2123801582898E+02 CYCLES  14


 ENERGY EXPRESSION=HARTREE+FOCK EXCH*0.25000+(PBE        EXCH)*0.75000+PBE        CORR


 TOTAL ENERGY(DFT)(AU)( 14) -9.2123801582898E+02 DE-2.6E-11 tester 4.2E-13
 TTTTTTTTTTTTTTTTTTTTTTTTTTTTTT EDFT        TELAPSE     1569.56 TCPU     1563.00
 EIGENVECTORS IN FORTRAN UNIT  8
 TTTTTTTTTTTTTTTTTTTTTTTTTTTTTT END         TELAPSE     1570.07 TCPU     1563.48
 EEEEEEEEEE TERMINATION  DATE 02 12 2018 TIME 22:39:51.3
NODE    0 CPU TIME =      1563.482
NODE    1 CPU TIME =      1557.091
NODE    2 CPU TIME =      1561.348
NODE    3 CPU TIME =      1555.954
NODE    4 CPU TIME =      1561.649
NODE    5 CPU TIME =      1558.074
NODE    6 CPU TIME =      1559.949
NODE    7 CPU TIME =      1560.093
NODE    8 CPU TIME =      1561.798
NODE    9 CPU TIME =      1561.995
NODE   10 CPU TIME =      1556.730
NODE   11 CPU TIME =      1558.859
NODE   12 CPU TIME =      1559.824
NODE   13 CPU TIME =      1556.626
NODE   14 CPU TIME =      1558.493
NODE   15 CPU TIME =      1554.742
    TOTAL CPU TIME =     24946.708
